TITLE = SQUARE_22000
VARIABLES = "X" ,  "Y" , "u0" , "v0" , "p0" , "nu0", "fx"  
ZONE   N=30576,E=60444,F=FEPOINT,ET=TRIANGLE
0.5 0 0 0 -0.25127 0 0
0.5 0.00504812 0 0 -0.251329 0 0
0.5 0.0101472 0 0 -0.251301 0 0
0.5 0.0152978 0 0 -0.251319 0 0
0.5 0.0205003 0 0 -0.251328 0 0
0.5 0.0257554 0 0 -0.251346 0 0
0.5 0.0310636 0 0 -0.251367 0 0
0.5 0.0364253 0 0 -0.251393 0 0
0.5 0.0418412 0 0 -0.251423 0 0
0.5 0.0473118 0 0 -0.251457 0 0
0.5 0.0528376 0 0 -0.251497 0 0
0.5 0.0584191 0 0 -0.251542 0 0
0.5 0.0640571 0 0 -0.251592 0 0
0.5 0.0697519 0 0 -0.251648 0 0
0.5 0.0755043 0 0 -0.25171 0 0
0.5 0.0813147 0 0 -0.251778 0 0
0.5 0.0871838 0 0 -0.251852 0 0
0.5 0.0931121 0 0 -0.251932 0 0
0.5 0.0991003 0 0 -0.25202 0 0
0.5 0.105149 0 0 -0.252115 0 0
0.5 0.111259 0 0 -0.252217 0 0
0.5 0.11743 0 0 -0.252327 0 0
0.5 0.123664 0 0 -0.252446 0 0
0.5 0.129961 0 0 -0.252573 0 0
0.5 0.136321 0 0 -0.252709 0 0
0.5 0.142745 0 0 -0.252854 0 0
0.5 0.149235 0 0 -0.253009 0 0
0.5 0.155789 0 0 -0.253175 0 0
0.5 0.16241 0 0 -0.253351 0 0
0.5 0.169098 0 0 -0.253539 0 0
0.5 0.175854 0 0 -0.253738 0 0
0.5 0.182677 0 0 -0.253949 0 0
0.5 0.18957 0 0 -0.254173 0 0
0.5 0.196532 0 0 -0.25441 0 0
0.5 0.203564 0 0 -0.254661 0 0
0.5 0.210667 0 0 -0.254926 0 0
0.5 0.217842 0 0 -0.255206 0 0
0.5 0.22509 0 0 -0.255501 0 0
0.5 0.232411 0 0 -0.255812 0 0
0.5 0.239805 0 0 -0.256139 0 0
0.5 0.247274 0 0 -0.256483 0 0
0.5 0.254819 0 0 -0.256845 0 0
0.5 0.26244 0 0 -0.257225 0 0
0.5 0.270138 0 0 -0.257623 0 0
0.5 0.277913 0 0 -0.258039 0 0
0.5 0.285767 0 0 -0.258475 0 0
0.5 0.293701 0 0 -0.258931 0 0
0.5 0.301714 0 0 -0.259407 0 0
0.5 0.309808 0 0 -0.259903 0 0
0.5 0.317984 0 0 -0.260419 0 0
0.5 0.326243 0 0 -0.260957 0 0
0.5 0.334585 0 0 -0.261516 0 0
0.5 0.343011 0 0 -0.262097 0 0
0.5 0.351522 0 0 -0.262701 0 0
0.5 0.360119 0 0 -0.263329 0 0
0.5 0.368803 0 0 -0.263982 0 0
0.5 0.377575 0 0 -0.264662 0 0
0.5 0.386435 0 0 -0.265372 0 0
0.5 0.395385 0 0 -0.266113 0 0
0.5 0.404425 0 0 -0.266895 0 0
0.5 0.413556 0 0 -0.26771 0 0
0.5 0.42278 0 0 -0.268588 0 0
0.5 0.432096 0 0 -0.269469 0 0
0.5 0.441507 0 0 -0.270476 0 0
0.5 0.451013 0 0 -0.271276 0 0
0.5 0.460614 0 0 -0.272445 0 0
0.5 0.470313 0 0 -0.272532 0 0
0.5 0.480109 0 0 -0.274252 0 0
0.5 0.490005 0 0 -0.270419 0 0
0.5 0.5 0 0 -0.301245 0 0
0.505044 0 -0.000113855 0 -0.25134 5.60128e-05 4.85165e-06
0.505044 0.00509904 -0.000363096 0.000862997 -0.251357 5.47624e-05 6.50143e-06
0.505044 0.0102496 -0.000301529 0.00165121 -0.251355 5.46689e-05 1.03027e-05
0.505044 0.0154521 -0.000325553 0.00250869 -0.251368 5.47126e-05 1.75266e-05
0.505044 0.0207071 -0.000316806 0.00335712 -0.25138 5.4772e-05 2.69228e-05
0.505044 0.0260153 -0.000321163 0.004226 -0.251398 5.48384e-05 3.89163e-05
0.505044 0.031377 -0.000320719 0.005105 -0.25142 5.49077e-05 5.28639e-05
0.505044 0.0367928 -0.000322452 0.00599846 -0.251446 5.49798e-05 6.87171e-05
0.505044 0.0422633 -0.0003237 0.00690633 -0.251478 5.5054e-05 8.57038e-05
0.505044 0.047789 -0.00032541 0.00782935 -0.251514 5.51301e-05 0.000103396
0.505044 0.0533706 -0.000327243 0.0087685 -0.251555 5.52077e-05 0.000120828
0.505044 0.0590085 -0.000329292 0.00972431 -0.251601 5.52866e-05 0.000137148
0.505044 0.0647033 -0.000331532 0.0106977 -0.251653 5.53665e-05 0.000151137
0.505044 0.0704556 -0.000333956 0.0116893 -0.251711 5.54473e-05 0.000161522
0.505044 0.0762659 -0.000336573 0.0127 -0.251775 5.55286e-05 0.000166525
0.505044 0.082135 -0.000339373 0.0137305 -0.251845 5.56103e-05 0.000164354
0.505044 0.0880633 -0.000342359 0.0147817 -0.251921 5.56922e-05 0.000152909
0.505044 0.0940514 -0.000345526 0.0158542 -0.252004 5.5774e-05 0.000129655
0.505044 0.1001 -0.000348874 0.016949 -0.252095 5.58556e-05 9.17441e-05
0.505044 0.10621 -0.000352398 0.0180668 -0.252193 5.59365e-05 3.59065e-05
0.505044 0.112381 -0.000356093 0.0192084 -0.252298 5.60167e-05 -4.13895e-05
0.505044 0.118615 -0.000359949 0.0203747 -0.252412 5.60958e-05 -0.000144182
0.505044 0.124911 -0.000363958 0.0215664 -0.252534 5.61734e-05 -0.000277181
0.505044 0.131272 -0.000368109 0.0227843 -0.252665 5.62493e-05 -0.000445686
0.505044 0.137696 -0.000372389 0.0240292 -0.252805 5.63231e-05 -0.00065555
0.505044 0.144185 -0.000376783 0.0253016 -0.252955 5.63943e-05 -0.000913182
0.505044 0.15074 -0.000381274 0.0266024 -0.253115 5.64627e-05 -0.00122618
0.505044 0.157361 -0.000385843 0.0279321 -0.253285 5.65276e-05 -0.00160303
0.505044 0.164049 -0.000390464 0.0292912 -0.253466 5.65886e-05 -0.00205301
0.505044 0.170804 -0.000395111 0.0306802 -0.253659 5.66451e-05 -0.00258678
0.505044 0.177628 -0.000399754 0.0320996 -0.253864 5.66965e-05 -0.00321593
0.505044 0.18452 -0.000404357 0.0335495 -0.254081 5.67423e-05 -0.00395386
0.505044 0.191482 -0.000408886 0.0350301 -0.254312 5.67817e-05 -0.00481611
0.505044 0.198514 -0.000413292 0.0365414 -0.254555 5.68138e-05 -0.00581958
0.505044 0.205618 -0.00041733 0.0380833 -0.254813 5.68378e-05 -0.00698345
0.505044 0.212793 -0.000420781 0.039655 -0.255086 5.68522e-05 -0.00832935
0.505044 0.22004 -0.000424008 0.0412556 -0.255373 5.68561e-05 -0.00988092
0.505044 0.227361 -0.000427186 0.0428838 -0.255676 5.68502e-05 -0.0116661
0.505044 0.234755 -0.000430035 0.0445389 -0.255996 5.68341e-05 -0.0137158
0.505044 0.242224 -0.000432508 0.04622 -0.256332 5.68067e-05 -0.0160672
0.505044 0.249769 -0.0004345 0.0479255 -0.256685 5.67661e-05 -0.018761
0.505044 0.25739 -0.000435953 0.0496539 -0.257056 5.67109e-05 -0.0218438
0.505044 0.265087 -0.000436824 0.0514032 -0.257445 5.66396e-05 -0.0253701
0.505044 0.272863 -0.000437102 0.0531712 -0.257853 5.65508e-05 -0.0294016
0.505044 0.280717 -0.000436795 0.0549558 -0.25828 5.6443e-05 -0.0340087
0.505044 0.28865 -0.000435945 0.0567547 -0.258726 5.63149e-05 -0.039273
0.505044 0.296663 -0.000434637 0.0585657 -0.259192 5.61648e-05 -0.0452871
0.505044 0.304758 -0.000433006 0.0603873 -0.259678 5.59913e-05 -0.0521574
0.505044 0.312933 -0.000431265 0.0622181 -0.260186 5.57929e-05 -0.0600049
0.505044 0.321192 -0.000429687 0.0640578 -0.260714 5.55681e-05 -0.0689656
0.505044 0.329534 -0.000428685 0.0659072 -0.261264 5.53155e-05 -0.0791917
0.505044 0.33796 -0.000428672 0.0677687 -0.261836 5.50337e-05 -0.090847
0.505044 0.346471 -0.00043038 0.0696467 -0.262431 5.47214e-05 -0.104106
0.505044 0.355068 -0.00043415 0.0715481 -0.26305 5.43774e-05 -0.119143
0.505044 0.363752 -0.000441338 0.0734824 -0.263695 5.4001e-05 -0.136114
0.505044 0.372524 -0.000451006 0.0754617 -0.264367 5.35928e-05 -0.15512
0.505044 0.381384 -0.000466553 0.0775001 -0.265068 5.31607e-05 -0.176182
0.505044 0.390333 -0.000480119 0.0796101 -0.265802 5.27278e-05 -0.199071
0.505044 0.399373 -0.000503803 0.0817984 -0.26657 5.23475e-05 -0.22335
0.505044 0.408505 -0.000498164 0.0840502 -0.267376 5.20688e-05 -0.247659
0.505044 0.417728 -0.000521455 0.0863163 -0.268219 5.19116e-05 -0.270376
0.505044 0.427044 -0.000394797 0.0884576 -0.269097 5.17852e-05 -0.286106
0.505044 0.436455 -0.000428363 0.0902494 -0.269993 5.16585e-05 -0.290997
0.505044 0.445961 0.000179467 0.0911934 -0.270903 5.12861e-05 -0.262828
0.505044 0.455562 -0.000290471 0.0910202 -0.271711 5.0755e-05 -0.197418
0.505044 0.465261 0.00180743 0.0886484 -0.272702 4.8983e-05 0.0033305
0.505044 0.475057 -0.00226844 0.0879685 -0.272539 4.83627e-05 0.417778
0.505044 0.484953 0.00704546 0.0772852 -0.27685 4.30801e-05 1.32581
0.505044 0.494948 -0.0320067 0.121644 -0.266181 4.13812e-05 2.68931
0.505044 0.505044 -0.0434352 0.0470034 -0.29826 0.000109077 -0.85454
0.51019 0 -0.00129927 0 -0.251316 0.000121825 0.000519543
0.51019 0.005151 -0.00145752 0.00132239 -0.251344 0.000121691 0.000475276
0.51019 0.010354 -0.00145512 0.00258348 -0.251339 0.000121699 0.000538732
0.51019 0.0156095 -0.00147093 0.00389209 -0.251352 0.000121751 0.000593933
0.51019 0.0209181 -0.00147257 0.00521103 -0.251364 0.000121818 0.000699206
0.51019 0.0262803 -0.00148068 0.00655135 -0.251383 0.000121894 0.000824577
0.51019 0.0316966 -0.00148695 0.00791107 -0.251405 0.000121976 0.000981871
0.51019 0.0371676 -0.00149527 0.0092908 -0.251432 0.000122063 0.00116431
0.51019 0.0426939 -0.00150394 0.0106921 -0.251464 0.000122154 0.00137077
0.51019 0.0482759 -0.00151368 0.0121152 -0.2515 0.000122247 0.00159893
0.51019 0.0539143 -0.00152414 0.0135615 -0.251542 0.000122342 0.00184517
0.51019 0.0596097 -0.00153544 0.0150318 -0.251589 0.000122439 0.0021048
0.51019 0.0653625 -0.0015475 0.0165272 -0.251642 0.000122536 0.00237194
0.51019 0.0711734 -0.00156034 0.0180486 -0.251701 0.000122633 0.00264151
0.51019 0.077043 -0.00157394 0.0195971 -0.251765 0.00012273 0.0029069
0.51019 0.0829718 -0.00158828 0.0211737 -0.251837 0.000122826 0.0031604
0.51019 0.0889605 -0.00160336 0.0227796 -0.251914 0.000122919 0.00339169
0.51019 0.0950097 -0.00161916 0.0244157 -0.251999 0.000123011 0.00359325
0.51019 0.10112 -0.00163567 0.0260833 -0.252091 0.000123099 0.00375479
0.51019 0.107292 -0.00165285 0.0277832 -0.252191 0.000123184 0.00386425
0.51019 0.113526 -0.00167067 0.0295168 -0.252298 0.000123264 0.00391008
0.51019 0.119823 -0.00168908 0.0312849 -0.252414 0.000123338 0.00387851
0.51019 0.126184 -0.00170806 0.0330887 -0.252538 0.000123407 0.00375483
0.51019 0.132609 -0.00172752 0.0349293 -0.252672 0.000123469 0.00352447
0.51019 0.139099 -0.00174742 0.0368075 -0.252814 0.000123522 0.00317236
0.51019 0.145654 -0.00176769 0.0387244 -0.252967 0.000123567 0.00267883
0.51019 0.152276 -0.00178824 0.0406809 -0.25313 0.000123601 0.00202809
0.51019 0.158964 -0.00180898 0.0426778 -0.253304 0.000123624 0.00120143
0.51019 0.16572 -0.00182979 0.044716 -0.253489 0.000123634 0.000180751
0.51019 0.172544 -0.00185057 0.046796 -0.253686 0.00012363 -0.00104973
0.51019 0.179437 -0.00187117 0.0489184 -0.253895 0.00012361 -0.00251144
0.51019 0.1864 -0.00189144 0.0510836 -0.254117 0.000123573 -0.00422314
0.51019 0.193433 -0.00191123 0.053292 -0.254352 0.000123517 -0.00619678
0.51019 0.200537 -0.00193034 0.0555435 -0.254601 0.00012344 -0.00844799
0.51019 0.207712 -0.0019483 0.0578382 -0.254865 0.00012334 -0.0109922
0.51019 0.214961 -0.00196444 0.0601759 -0.255143 0.000123212 -0.013829
0.51019 0.222282 -0.00197884 0.0625559 -0.255437 0.000123056 -0.0169391
0.51019 0.229677 -0.00199194 0.064976 -0.255747 0.000122874 -0.0203061
0.51019 0.237147 -0.00200354 0.067435 -0.256073 0.000122664 -0.0239001
0.51019 0.244692 -0.00201324 0.0699314 -0.256417 0.000122421 -0.0276576
0.51019 0.252314 -0.00202068 0.0724634 -0.256778 0.000122143 -0.0314994
0.51019 0.260012 -0.00202561 0.0750285 -0.257157 0.000121825 -0.0353072
0.51019 0.267788 -0.00202787 0.0776239 -0.257555 0.000121465 -0.0389065
0.51019 0.275643 -0.00202733 0.0802465 -0.257972 0.000121058 -0.04206
0.51019 0.283577 -0.00202399 0.0828925 -0.258408 0.000120603 -0.0444448
0.51019 0.291591 -0.00201792 0.0855581 -0.258865 0.000120094 -0.0456177
0.51019 0.299686 -0.00200934 0.0882387 -0.259341 0.000119529 -0.0449842
0.51019 0.307863 -0.00199868 0.0909299 -0.259839 0.000118904 -0.0417469
0.51019 0.316122 -0.00198654 0.093627 -0.260357 0.000118217 -0.034838
0.51019 0.324464 -0.00197382 0.0963251 -0.260897 0.000117462 -0.022836
0.51019 0.332891 -0.00196169 0.0990196 -0.261458 0.000116638 -0.00385001
0.51019 0.341403 -0.00195161 0.101706 -0.262042 0.000115741 0.024611
0.51019 0.350001 -0.00194536 0.104381 -0.262649 0.000114768 0.065845
0.51019 0.358686 -0.0019448 0.107042 -0.263281 0.000113715 0.124145
0.51019 0.367458 -0.0019518 0.109685 -0.263938 0.000112582 0.20516
0.51019 0.376319 -0.0019673 0.11231 -0.264623 0.000111364 0.316033
0.51019 0.38527 -0.00199098 0.114914 -0.265337 0.000110064 0.466184
0.51019 0.39431 -0.00201644 0.117492 -0.266087 0.000108684 0.666581
0.51019 0.403442 -0.00203094 0.12003 -0.266869 0.000107235 0.93241
0.51019 0.412667 -0.00199919 0.122491 -0.267705 0.000105716 1.27672
0.51019 0.421984 -0.00187407 0.124797 -0.268561 0.000104097 1.7249
0.51019 0.431395 -0.00152577 0.126774 -0.269517 0.000102265 2.27094
0.51019 0.440902 -0.000886552 0.128095 -0.270379 0.000100011 2.98406
0.51019 0.450504 0.000335757 0.128179 -0.271519 9.69277e-05 3.68395
0.51019 0.460204 0.00160755 0.126449 -0.271893 9.26387e-05 4.86436
0.51019 0.470001 0.00340591 0.12081 -0.273725 8.67567e-05 5.06771
0.51019 0.479897 0.00267032 0.115044 -0.271381 8.01121e-05 8.23322
0.51019 0.489893 -0.00122847 0.096986 -0.276246 7.36151e-05 14.186
0.51019 0.499991 -0.0201923 0.0603748 -0.27408 9.66721e-05 17.677
0.51019 0.51019 0.0146543 0.0115991 -0.290428 0.000237456 48.1898
0.515439 0 -0.00269307 0 -0.251366 0.000211643 0.00621464
0.515439 0.005204 -0.00280301 0.00143544 -0.251375 0.000211627 0.00587048
0.515439 0.0104605 -0.00280754 0.00285013 -0.25138 0.000211652 0.00588375
0.515439 0.0157701 -0.00282795 0.004286 -0.25139 0.000211708 0.00583599
0.515439 0.0211334 -0.00283633 0.00574158 -0.251404 0.000211782 0.00584003
0.515439 0.0265507 -0.00284993 0.00721597 -0.251422 0.00021187 0.00582954
0.515439 0.0320228 -0.00286258 0.00871204 -0.251446 0.000211968 0.00582281
0.515439 0.0375501 -0.0028775 0.0102284 -0.251473 0.000212072 0.00581167
0.515439 0.0431332 -0.00289341 0.0117675 -0.251506 0.000212182 0.00579621
0.515439 0.0487727 -0.00291094 0.0133292 -0.251544 0.000212295 0.00577907
0.515439 0.0544691 -0.00292978 0.014915 -0.251587 0.00021241 0.005762
0.515439 0.060223 -0.00295007 0.0165255 -0.251635 0.000212525 0.00574213
0.515439 0.066035 -0.0029717 0.018162 -0.251689 0.000212641 0.00572108
0.515439 0.0719057 -0.0029947 0.0198254 -0.25175 0.000212755 0.00570592
0.515439 0.0778357 -0.00301902 0.0215167 -0.251816 0.000212866 0.00569957
0.515439 0.0838255 -0.00304466 0.023237 -0.251889 0.000212973 0.00570143
0.515439 0.0898759 -0.00307157 0.0249873 -0.251969 0.000213075 0.00571481
0.515439 0.0959873 -0.00309973 0.0267687 -0.252056 0.000213172 0.00575202
0.515439 0.10216 -0.0031291 0.0285823 -0.252151 0.00021326 0.00581953
0.515439 0.108396 -0.00315963 0.030429 -0.252253 0.00021334 0.00591795
0.515439 0.114694 -0.00319125 0.0323101 -0.252363 0.00021341 0.00605894
0.515439 0.121056 -0.00322388 0.0342263 -0.252482 0.000213468 0.00625284
0.515439 0.127482 -0.00325744 0.0361789 -0.25261 0.000213514 0.00651412
0.515439 0.133973 -0.00329183 0.0381687 -0.252747 0.000213544 0.00686119
0.515439 0.14053 -0.00332692 0.0401967 -0.252893 0.000213557 0.00730995
0.515439 0.147153 -0.00336259 0.0422637 -0.25305 0.000213552 0.00788302
0.515439 0.153843 -0.00339869 0.0443706 -0.253218 0.000213525 0.00861406
0.515439 0.1606 -0.00343504 0.046518 -0.253396 0.000213476 0.00953392
0.515439 0.167425 -0.00347145 0.0487066 -0.253586 0.000213401 0.0106795
0.515439 0.17432 -0.00350769 0.0509368 -0.253788 0.000213297 0.0120993
0.515439 0.181284 -0.00354351 0.053209 -0.254003 0.000213163 0.0138473
0.515439 0.188318 -0.00357865 0.0555234 -0.25423 0.000212994 0.0159917
0.515439 0.195423 -0.00361279 0.0578799 -0.254472 0.000212788 0.0186181
0.515439 0.2026 -0.00364558 0.0602784 -0.254727 0.00021254 0.021815
0.515439 0.20985 -0.00367648 0.0627183 -0.254998 0.000212247 0.0256916
0.515439 0.217172 -0.00370452 0.0651995 -0.255283 0.000211902 0.0304042
0.515439 0.224569 -0.00372906 0.0677206 -0.255585 0.000211504 0.0361422
0.515439 0.23204 -0.00375054 0.0702791 -0.255902 0.000211054 0.0430867
0.515439 0.239587 -0.00376884 0.0728725 -0.256237 0.000210547 0.0514515
0.515439 0.24721 -0.00378321 0.0754982 -0.256589 0.000209974 0.0615226
0.515439 0.25491 -0.00379301 0.078153 -0.256959 0.000209331 0.0736301
0.515439 0.262687 -0.00379772 0.0808331 -0.257348 0.000208612 0.0881642
0.515439 0.270544 -0.00379684 0.0835339 -0.257755 0.00020781 0.105588
0.515439 0.278479 -0.00378998 0.0862501 -0.258182 0.000206919 0.126455
0.515439 0.286495 -0.0037768 0.0889756 -0.258629 0.000205934 0.151415
0.515439 0.294591 -0.00375712 0.0917033 -0.259096 0.000204847 0.181228
0.515439 0.302769 -0.00373092 0.094425 -0.259583 0.000203652 0.216787
0.515439 0.31103 -0.00369838 0.0971318 -0.260092 0.000202342 0.259132
0.515439 0.319374 -0.00365998 0.0998134 -0.260621 0.00020091 0.30945
0.515439 0.327803 -0.00361647 0.102459 -0.261173 0.00019935 0.36908
0.515439 0.336317 -0.00356902 0.105055 -0.261746 0.000197656 0.439523
0.515439 0.344916 -0.00351898 0.107588 -0.262343 0.000195821 0.522389
0.515439 0.353602 -0.00346823 0.110043 -0.262963 0.000193838 0.619373
0.515439 0.362376 -0.00341798 0.112401 -0.263608 0.000191703 0.732137
0.515439 0.371239 -0.00337018 0.114643 -0.26428 0.000189409 0.862243
0.515439 0.380191 -0.00332232 0.116744 -0.264982 0.000186952 1.01081
0.515439 0.389234 -0.00327388 0.118671 -0.265714 0.000184333 1.17871
0.515439 0.398368 -0.00320056 0.120378 -0.266484 0.000181553 1.36535
0.515439 0.407594 -0.00308863 0.121796 -0.267292 0.000178617 1.57125
0.515439 0.416913 -0.00283044 0.12281 -0.268147 0.000175501 1.79189
0.515439 0.426326 -0.00239475 0.12325 -0.269039 0.000172123 2.03776
0.515439 0.435834 -0.00139407 0.122785 -0.269999 0.000168156 2.28858
0.515439 0.445438 4.22101e-05 0.121114 -0.270899 0.000163046 2.64156
0.515439 0.45514 0.00285856 0.117177 -0.271962 0.000155765 3.01573
0.515439 0.464939 0.00545054 0.111488 -0.272406 0.000145771 3.79075
0.515439 0.474837 0.00957249 0.0998421 -0.273544 0.000132705 6.22778
0.515439 0.484835 0.0112972 0.0872901 -0.273117 0.000118588 12.3328
0.515439 0.494934 0.00581942 0.0616104 -0.273196 0.00011639 23.7893
0.515439 0.505135 0.016562 0.0184547 -0.28165 0.000192476 28.9221
0.515439 0.515439 0.0433366 -0.00354239 -0.287445 0.000380846 30.309
0.520794 0 -0.00421071 0 -0.251422 0.000319343 0.0228213
0.520794 0.00525806 -0.00425042 0.00141698 -0.251432 0.000319322 0.0219454
0.520794 0.0105692 -0.00426617 0.00284042 -0.251437 0.000319349 0.0218828
0.520794 0.015934 -0.00428487 0.00427527 -0.251447 0.000319415 0.021533
0.520794 0.0213529 -0.00430002 0.00573075 -0.251462 0.000319506 0.0212341
0.520794 0.0268266 -0.00431801 0.00720235 -0.251481 0.000319616 0.0208006
0.520794 0.0323555 -0.00433673 0.00869517 -0.251505 0.000319738 0.0202548
0.520794 0.0379402 -0.00435791 0.0102073 -0.251533 0.000319869 0.0195897
0.520794 0.0435813 -0.00438084 0.0117414 -0.251567 0.000320006 0.0188024
0.520794 0.0492794 -0.00440596 0.0132972 -0.251605 0.000320147 0.0178939
0.520794 0.055035 -0.00443305 0.0148765 -0.25165 0.000320289 0.0168686
0.520794 0.0608487 -0.0044622 0.0164796 -0.251699 0.00032043 0.0157238
0.520794 0.0667211 -0.00449331 0.0181079 -0.251755 0.000320569 0.0144631
0.520794 0.0726528 -0.00452639 0.019762 -0.251817 0.000320703 0.0130988
0.520794 0.0786444 -0.00456137 0.0214432 -0.251885 0.000320832 0.0116283
0.520794 0.0846965 -0.00459825 0.0231522 -0.25196 0.000320953 0.0100577
0.520794 0.0908097 -0.00463694 0.02489 -0.252042 0.000321065 0.00839339
0.520794 0.0969846 -0.00467741 0.0266578 -0.252131 0.000321165 0.00664958
0.520794 0.103222 -0.00471958 0.0284563 -0.252228 0.000321253 0.00483661
0.520794 0.109522 -0.00476336 0.0302865 -0.252332 0.000321324 0.00295792
0.520794 0.115886 -0.00480865 0.0321494 -0.252445 0.000321379 0.00102428
0.520794 0.122314 -0.00485533 0.0340458 -0.252567 0.000321414 -0.000947193
0.520794 0.128807 -0.00490323 0.0359765 -0.252698 0.000321426 -0.00293734
0.520794 0.135365 -0.00495221 0.0379424 -0.252838 0.000321414 -0.00493435
0.520794 0.14199 -0.00500207 0.0399441 -0.252988 0.000321374 -0.00691612
0.520794 0.148682 -0.00505261 0.0419823 -0.253149 0.000321303 -0.0088472
0.520794 0.155441 -0.00510358 0.0440575 -0.25332 0.000321198 -0.0107021
0.520794 0.162268 -0.0051547 0.0461702 -0.253503 0.000321056 -0.0124524
0.520794 0.169165 -0.00520564 0.0483207 -0.253698 0.000320872 -0.0140615
0.520794 0.176131 -0.00525607 0.0505091 -0.253904 0.000320643 -0.0154833
0.520794 0.183167 -0.00530559 0.0527354 -0.254124 0.000320364 -0.0166635
0.520794 0.190274 -0.00535374 0.0549993 -0.254357 0.00032003 -0.0175473
0.520794 0.197454 -0.00540003 0.0573003 -0.254605 0.000319637 -0.0180642
0.520794 0.204705 -0.00544391 0.0596377 -0.254866 0.000319179 -0.0181328
0.520794 0.21203 -0.00548467 0.0620104 -0.255143 0.000318648 -0.0176634
0.520794 0.219429 -0.00552111 0.0644172 -0.255436 0.000318038 -0.0165425
0.520794 0.226902 -0.00555196 0.0668566 -0.255744 0.00031734 -0.0146094
0.520794 0.234451 -0.00557719 0.0693255 -0.256069 0.000316548 -0.0116791
0.520794 0.242076 -0.00559646 0.0718203 -0.256412 0.000315661 -0.00761873
0.520794 0.249778 -0.00560875 0.0743371 -0.256772 0.000314668 -0.002229
0.520794 0.257558 -0.00561303 0.0768713 -0.257151 0.000313561 0.00472996
0.520794 0.265417 -0.00560831 0.0794178 -0.257548 0.000312332 0.0135222
0.520794 0.273355 -0.0055936 0.0819701 -0.257965 0.00031097 0.0244672
0.520794 0.281372 -0.00556797 0.0845209 -0.258401 0.000309465 0.0379301
0.520794 0.289471 -0.00553053 0.0870615 -0.258858 0.000307807 0.0543195
0.520794 0.297652 -0.0054805 0.0895817 -0.259335 0.000305985 0.0741191
0.520794 0.305915 -0.00541722 0.0920699 -0.259832 0.000303988 0.0978821
0.520794 0.314262 -0.00534022 0.0945126 -0.260351 0.000301803 0.126237
0.520794 0.322693 -0.0052492 0.0968939 -0.260891 0.000299419 0.159912
0.520794 0.331209 -0.00514409 0.0991954 -0.261453 0.000296824 0.199715
0.520794 0.339811 -0.00502499 0.101396 -0.262036 0.000294003 0.246617
0.520794 0.3485 -0.00489194 0.103469 -0.262643 0.000290943 0.301663
0.520794 0.357276 -0.00474472 0.105384 -0.263273 0.000287631 0.366227
0.520794 0.366142 -0.00458175 0.107103 -0.263927 0.000284052 0.441619
0.520794 0.375096 -0.00439958 0.108579 -0.264607 0.000280192 0.530301
0.520794 0.384141 -0.00418904 0.10975 -0.265316 0.000276041 0.633696
0.520794 0.393278 -0.00393297 0.110533 -0.266055 0.0002716 0.758226
0.520794 0.402507 -0.0035879 0.110819 -0.266833 0.000266877 0.903618
0.520794 0.411828 -0.0030862 0.110452 -0.267641 0.000261885 1.09198
0.520794 0.421244 -0.00228734 0.109207 -0.268515 0.000256572 1.31324
0.520794 0.430755 -0.00101099 0.106828 -0.269382 0.000250688 1.64985
0.520794 0.440362 0.00107431 0.102922 -0.270394 0.000243486 2.08264
0.520794 0.450067 0.00415851 0.0973487 -0.27117 0.000233648 2.76746
0.520794 0.459869 0.00840492 0.0895469 -0.272271 0.000219658 4.28985
0.520794 0.46977 0.0134126 0.0797196 -0.272463 0.000200945 5.64745
0.520794 0.479771 0.0180184 0.0674302 -0.272926 0.000178723 12.4528
0.520794 0.489873 0.0210745 0.0516462 -0.273223 0.000160729 20.8601
0.520794 0.500076 0.0261408 0.0278602 -0.273097 0.000187066 23.1252
0.520794 0.510383 0.0407918 0.00257123 -0.284664 0.000318876 21.5898
0.520794 0.520794 0.0610152 -0.0100518 -0.285134 0.000525394 25.7513
0.526258 0 -0.00566303 0 -0.251532 0.000440348 0.04652
0.526258 0.00531322 -0.00568936 0.0013786 -0.251528 0.000440294 0.0459434
0.526258 0.0106801 -0.00570343 0.00277696 -0.251539 0.000440318 0.0457429
0.526258 0.0161011 -0.00572348 0.00418189 -0.251547 0.000440393 0.0453489
0.526258 0.0215769 -0.00574189 0.00560747 -0.251564 0.000440499 0.0448828
0.526258 0.027108 -0.00576384 0.00704741 -0.251583 0.000440626 0.0441677
0.526258 0.0326949 -0.00578746 0.00850769 -0.251608 0.000440768 0.043191
0.526258 0.0383382 -0.00581413 0.00998617 -0.251637 0.000440919 0.0419944
0.526258 0.0440385 -0.00584323 0.0114856 -0.251671 0.000441075 0.0405616
0.526258 0.0497964 -0.00587514 0.0130058 -0.251711 0.000441234 0.0389015
0.526258 0.0556124 -0.00590962 0.0145482 -0.251756 0.000441391 0.0370168
0.526258 0.0614871 -0.00594677 0.0161133 -0.251807 0.000441544 0.0349071
0.526258 0.0674211 -0.00598645 0.0177022 -0.251864 0.000441692 0.0325776
0.526258 0.073415 -0.00602866 0.0193158 -0.251927 0.00044183 0.0300265
0.526258 0.0794694 -0.00607332 0.0209548 -0.251997 0.000441958 0.0272677
0.526258 0.085585 -0.00612037 0.0226202 -0.252074 0.000442072 0.0243096
0.526258 0.0917623 -0.00616972 0.0243128 -0.252158 0.000442169 0.0211547
0.526258 0.098002 -0.00622129 0.0260335 -0.252249 0.000442248 0.0178179
0.526258 0.104305 -0.00627496 0.0277829 -0.252348 0.000442305 0.0143187
0.526258 0.110671 -0.00633059 0.029562 -0.252456 0.000442338 0.0106566
0.526258 0.117102 -0.00638804 0.0313714 -0.252571 0.000442343 0.00684366
0.526258 0.123597 -0.0064471 0.0332119 -0.252696 0.000442317 0.00289998
0.526258 0.130158 -0.00650756 0.035084 -0.25283 0.000442257 -0.00116052
0.526258 0.136785 -0.00656919 0.0369882 -0.252974 0.000442158 -0.00531861
0.526258 0.14348 -0.0066317 0.0389251 -0.253127 0.000442017 -0.00954772
0.526258 0.150242 -0.00669478 0.040895 -0.253292 0.000441829 -0.0138192
0.526258 0.157072 -0.00675807 0.042898 -0.253467 0.00044159 -0.0181051
0.526258 0.163971 -0.00682116 0.0449343 -0.253654 0.000441295 -0.0223784
0.526258 0.170939 -0.00688359 0.0470038 -0.253853 0.000440938 -0.0266022
0.526258 0.177979 -0.00694485 0.0491061 -0.254065 0.000440513 -0.030731
0.526258 0.185089 -0.00700437 0.0512407 -0.254289 0.000440015 -0.0347157
0.526258 0.192271 -0.00706147 0.053407 -0.254528 0.000439437 -0.0385047
0.526258 0.199525 -0.00711543 0.0556036 -0.254781 0.00043877 -0.0420359
0.526258 0.206853 -0.00716544 0.0578293 -0.255048 0.000438008 -0.0452241
0.526258 0.214254 -0.0072105 0.0600821 -0.255331 0.000437142 -0.0479866
0.526258 0.221731 -0.00724917 0.0623601 -0.25563 0.00043616 -0.0502186
0.526258 0.229283 -0.00727984 0.0646607 -0.255946 0.000435048 -0.0517948
0.526258 0.236911 -0.00730163 0.0669804 -0.256278 0.000433799 -0.0525227
0.526258 0.244616 -0.00731381 0.0693143 -0.256628 0.000432408 -0.0522707
0.526258 0.252399 -0.00731505 0.0716572 -0.256996 0.000430864 -0.0508537
0.526258 0.26026 -0.00730376 0.0740031 -0.257382 0.000429155 -0.0480502
0.526258 0.268201 -0.00727833 0.076345 -0.257788 0.000427268 -0.0436062
0.526258 0.276222 -0.00723707 0.0786745 -0.258213 0.000425189 -0.0372229
0.526258 0.284324 -0.00717829 0.0809821 -0.258658 0.000422903 -0.0285492
0.526258 0.292508 -0.00710024 0.0832562 -0.259124 0.000420395 -0.0171767
0.526258 0.300775 -0.00700113 0.0854838 -0.25961 0.000417649 -0.00261608
0.526258 0.309124 -0.00687917 0.0876491 -0.260116 0.000414647 0.015724
0.526258 0.317559 -0.0067325 0.089734 -0.260644 0.000411373 0.0385471
0.526258 0.326078 -0.00655921 0.0917167 -0.261193 0.000407805 0.0667145
0.526258 0.334683 -0.00635716 0.0935717 -0.261763 0.000403925 0.101277
0.526258 0.343376 -0.00612385 0.0952682 -0.262355 0.00039971 0.143597
0.526258 0.352156 -0.00585571 0.0967691 -0.262969 0.000395136 0.195346
0.526258 0.361024 -0.00554774 0.0980291 -0.263606 0.000390179 0.258912
0.526258 0.369983 -0.005191 0.098992 -0.264267 0.000384813 0.337175
0.526258 0.379031 -0.00477247 0.0995876 -0.264952 0.000379018 0.435028
0.526258 0.388171 -0.00426682 0.0997265 -0.265663 0.000372782 0.558149
0.526258 0.397404 -0.00363615 0.0992978 -0.266402 0.000366125 0.718028
0.526258 0.406729 -0.00279597 0.0981578 -0.267176 0.000359095 0.925004
0.526258 0.416149 -0.00163846 0.096138 -0.267971 0.000351748 1.20844
0.526258 0.425663 4.41344e-05 0.0930131 -0.268816 0.000343991 1.60374
0.526258 0.435274 0.00244681 0.0886475 -0.269628 0.000335226 2.16975
0.526258 0.444982 0.00591081 0.0828168 -0.270483 0.00032388 3.08139
0.526258 0.454788 0.0104683 0.0756691 -0.271147 0.000307653 4.40597
0.526258 0.464693 0.0160812 0.0670202 -0.271568 0.000285 6.76184
0.526258 0.474698 0.0221987 0.0571934 -0.271794 0.000256572 11.2168
0.526258 0.484804 0.0274632 0.0453186 -0.271387 0.000227239 17.7751
0.526258 0.495012 0.0335958 0.029431 -0.270568 0.00021934 21.7163
0.526258 0.505323 0.0436737 0.0120908 -0.272717 0.000292 25.2062
0.526258 0.515738 0.0574468 -0.00374708 -0.279448 0.000456774 18.1171
0.526258 0.526258 0.0753837 -0.0132397 -0.28118 0.000671365 19.2583
0.531832 0 -0.00709762 0 -0.251631 0.000572924 0.0743265
0.531832 0.0053695 -0.00711305 0.00133956 -0.251627 0.00057287 0.0740641
0.531832 0.0107932 -0.00712776 0.00270137 -0.251639 0.000572897 0.0741319
0.531832 0.0162717 -0.00714785 0.00406939 -0.251646 0.000572977 0.0740573
0.531832 0.0218055 -0.00716915 0.0054571 -0.251664 0.000573091 0.0734029
0.531832 0.0273951 -0.00719446 0.00685831 -0.251683 0.000573228 0.0724599
0.531832 0.0330412 -0.00722253 0.00827877 -0.251708 0.00057338 0.0712254
0.531832 0.0387443 -0.00725419 0.00971638 -0.251738 0.000573539 0.0697054
0.531832 0.044505 -0.007289 0.0111738 -0.251773 0.000573701 0.0678796
0.531832 0.0503238 -0.00732718 0.0126507 -0.251814 0.000573862 0.0657608
0.531832 0.0562014 -0.00736854 0.0141485 -0.25186 0.000574017 0.0633464
0.531832 0.0621383 -0.00741311 0.0156677 -0.251912 0.000574163 0.0606509
0.531832 0.0681351 -0.00746076 0.0172092 -0.25197 0.000574298 0.057652
0.531832 0.0741925 -0.00751144 0.0187737 -0.252035 0.000574417 0.0543748
0.531832 0.0803111 -0.00756504 0.0203619 -0.252107 0.000574517 0.0508366
0.531832 0.0864914 -0.00762146 0.0219747 -0.252185 0.000574595 0.0470445
0.531832 0.0927342 -0.00768058 0.0236126 -0.252271 0.000574647 0.0430058
0.531832 0.0990399 -0.00774224 0.0252764 -0.252364 0.00057467 0.0387412
0.531832 0.105409 -0.0078063 0.0269667 -0.252465 0.00057466 0.034268
0.531832 0.111843 -0.00787254 0.028684 -0.252574 0.000574613 0.029601
0.531832 0.118342 -0.00794075 0.0304288 -0.252693 0.000574525 0.0247561
0.531832 0.124906 -0.00801066 0.0322016 -0.25282 0.000574391 0.0197529
0.531832 0.131537 -0.00808195 0.0340027 -0.252956 0.000574206 0.0146156
0.531832 0.138234 -0.00815429 0.0358324 -0.253103 0.000573966 0.00937389
0.531832 0.144999 -0.00822729 0.0376908 -0.25326 0.000573664 0.00406101
0.531832 0.151833 -0.0083005 0.0395779 -0.253428 0.000573296 -0.00128625
0.531832 0.158735 -0.00837342 0.0414934 -0.253607 0.000572854 -0.00663219
0.531832 0.165707 -0.00844548 0.0434372 -0.253798 0.000572332 -0.011938
0.531832 0.17275 -0.00851604 0.0454085 -0.254001 0.000571722 -0.0171539
0.531832 0.179864 -0.0085844 0.0474066 -0.254217 0.000571017 -0.0222242
0.531832 0.187049 -0.00864973 0.0494305 -0.254446 0.000570209 -0.0270853
0.531832 0.194307 -0.00871112 0.0514786 -0.25469 0.000569288 -0.0316723
0.531832 0.201638 -0.00876757 0.0535492 -0.254948 0.000568244 -0.035903
0.531832 0.209043 -0.00881792 0.0556402 -0.255221 0.000567068 -0.0396803
0.531832 0.216524 -0.0088608 0.0577488 -0.25551 0.000565747 -0.0429031
0.531832 0.224079 -0.00889453 0.0598721 -0.255816 0.000564267 -0.0454304
0.531832 0.231711 -0.00891707 0.0620066 -0.256138 0.00056261 -0.047124