TITLE = SQUARE_22000
VARIABLES = "X" ,  "Y" , "u0" , "v0" , "p0" , "nu0", "fx", "fy"  
ZONE   N=30576,E=60444,F=FEPOINT,ET=TRIANGLE
0.5 0 0 0 -0.270468 0 9.23584e-33 9.22807e-33
0.5 0.00504812 0 0 -0.270539 0 1.85655e-32 8.80999e-37
0.5 0.0101472 0 0 -0.270575 0 1.87563e-32 6.40716e-38
0.5 0.0152978 0 0 -0.270647 0 1.89493e-32 -6.45502e-37
0.5 0.0205003 0 0 -0.27073 0 1.91455e-32 -1.11932e-36
0.5 0.0257554 0 0 -0.27084 0 1.93444e-32 -1.69278e-36
0.5 0.0310636 0 0 -0.270972 0 1.95458e-32 -2.3692e-36
0.5 0.0364253 0 0 -0.271137 0 1.97495e-32 -2.91214e-36
0.5 0.0418412 0 0 -0.271336 0 1.99557e-32 -3.33848e-36
0.5 0.0473118 0 0 -0.271589 0 2.01644e-32 -3.83673e-36
0.5 0.0528376 0 0 -0.271889 0 2.03721e-32 -5.91727e-36
0.5 0.0584191 0 0 -0.272236 0 2.05808e-32 -6.25278e-36
0.5 0.0640571 0 0 -0.272647 0 2.07967e-32 -4.92612e-36
0.5 0.0697519 0 0 -0.273117 0 2.10152e-32 -6.2711e-36
0.5 0.0755043 0 0 -0.273642 0 2.12366e-32 -7.16937e-36
0.5 0.0813147 0 0 -0.27421 0 2.14605e-32 -8.33608e-36
0.5 0.0871838 0 0 -0.274828 0 2.16882e-32 -8.91382e-36
0.5 0.0931121 0 0 -0.275505 0 2.19206e-32 -9.6881e-36
0.5 0.0991003 0 0 -0.276235 0 2.21548e-32 -1.24463e-35
0.5 0.105149 0 0 -0.277007 0 2.23913e-32 -1.4005e-35
0.5 0.111259 0 0 -0.277827 0 2.26309e-32 -1.56238e-35
0.5 0.11743 0 0 -0.278692 0 2.28736e-32 -1.72428e-35
0.5 0.123664 0 0 -0.279595 0 2.31193e-32 -1.88009e-35
0.5 0.129961 0 0 -0.280531 0 2.33676e-32 -2.02727e-35
0.5 0.136321 0 0 -0.281495 0 2.36188e-32 -2.16599e-35
0.5 0.142745 0 0 -0.282487 0 2.38733e-32 -2.28524e-35
0.5 0.149235 0 0 -0.283513 0 2.41311e-32 -2.37484e-35
0.5 0.155789 0 0 -0.284586 0 2.43927e-32 -2.42418e-35
0.5 0.16241 0 0 -0.285714 0 2.46584e-32 -2.48239e-35
0.5 0.169098 0 0 -0.286906 0 2.49277e-32 -2.54119e-35
0.5 0.175854 0 0 -0.288168 0 2.52006e-32 -2.59524e-35
0.5 0.182677 0 0 -0.289506 0 2.54773e-32 -2.67072e-35
0.5 0.18957 0 0 -0.290923 0 2.57571e-32 -2.7995e-35
0.5 0.196532 0 0 -0.292414 0 2.60391e-32 -2.9873e-35
0.5 0.203564 0 0 -0.293976 0 2.63238e-32 -3.07059e-35
0.5 0.210667 0 0 -0.295624 0 2.66124e-32 -3.08842e-35
0.5 0.217842 0 0 -0.297363 0 2.69045e-32 -3.23571e-35
0.5 0.22509 0 0 -0.299181 0 2.71996e-32 -3.3602e-35
0.5 0.232411 0 0 -0.301078 0 2.75043e-32 -3.20451e-35
0.5 0.239805 0 0 -0.303076 0 2.78182e-32 -3.31627e-35
0.5 0.247274 0 0 -0.305155 0 2.81292e-32 -3.69769e-35
0.5 0.254819 0 0 -0.307325 0 2.84434e-32 -3.79733e-35
0.5 0.26244 0 0 -0.309576 0 2.87607e-32 -3.98487e-35
0.5 0.270138 0 0 -0.311906 0 2.90813e-32 -4.16225e-35
0.5 0.277913 0 0 -0.314307 0 2.94062e-32 -4.30863e-35
0.5 0.285767 0 0 -0.316775 0 2.97344e-32 -4.45459e-35
0.5 0.293701 0 0 -0.319308 0 3.00665e-32 -4.53112e-35
0.5 0.301714 0 0 -0.321911 0 3.04043e-32 -4.50317e-35
0.5 0.309808 0 0 -0.324604 0 3.07481e-32 -4.46888e-35
0.5 0.317984 0 0 -0.327402 0 3.10964e-32 -4.39255e-35
0.5 0.326243 0 0 -0.330335 0 3.14523e-32 -4.21849e-35
0.5 0.334585 0 0 -0.333421 0 3.18157e-32 -4.13775e-35
0.5 0.343011 0 0 -0.336664 0 3.21852e-32 -4.12739e-35
0.5 0.351522 0 0 -0.340063 0 3.25598e-32 -4.14179e-35
0.5 0.360119 0 0 -0.343594 0 3.29408e-32 -4.04954e-35
0.5 0.368803 0 0 -0.347223 0 3.334e-32 -3.68271e-35
0.5 0.377575 0 0 -0.350917 0 3.37493e-32 -3.45861e-35
0.5 0.386435 0 0 -0.354669 0 3.41555e-32 -3.22481e-35
0.5 0.395385 0 0 -0.358501 0 3.45637e-32 -2.49985e-35
0.5 0.404425 0 0 -0.36249 0 3.49836e-32 -1.41661e-35
0.5 0.413556 0 0 -0.366744 0 3.54231e-32 8.91083e-37
0.5 0.42278 0 0 -0.371383 0 3.58983e-32 1.40313e-35
0.5 0.432096 0 0 -0.376385 0 3.64011e-32 1.97475e-35
0.5 0.441507 0 0 -0.381752 0 3.6918e-32 1.63937e-35
0.5 0.451013 0 0 -0.387054 0 3.74194e-32 -8.47509e-36
0.5 0.460614 0 0 -0.392538 0 3.77876e-32 -2.29786e-35
0.5 0.470313 0 0 -0.397125 0 3.81889e-32 1.67419e-35
0.5 0.480109 0 0 -0.405722 0 3.83145e-32 3.77434e-34
0.5 0.490005 0 0 -0.410136 0 4.16115e-32 1.31621e-33
0.5 0.5 0 0 -0.478829 0 2.48155e-32 3.04307e-32
0.505044 0 -7.69154e-05 0 -0.270483 4.4014e-05 0.0009436 1.86394e-32
0.505044 0.00509904 -2.8668e-05 0.000216254 -0.270534 4.31694e-05 0.00496727 -0.010482
0.505044 0.0102496 -6.96759e-05 0.000369457 -0.270562 4.34287e-05 0.00375253 -0.0191521
0.505044 0.0154521 -0.000134576 0.00072064 -0.270651 4.40129e-05 0.00440597 -0.0291566
0.505044 0.0207071 -0.000294824 0.00138489 -0.270754 4.4767e-05 0.00380465 -0.0376742
0.505044 0.0260153 -0.000475042 0.00253443 -0.270895 4.5582e-05 0.00374702 -0.0453976
0.505044 0.031377 -0.000667857 0.00418985 -0.271063 4.6383e-05 0.00321848 -0.0516724
0.505044 0.0367928 -0.000848271 0.00636611 -0.271263 4.71103e-05 0.00292433 -0.0565324
0.505044 0.0422633 -0.00100301 0.00900704 -0.271493 4.77116e-05 0.00238587 -0.0598449
0.505044 0.047789 -0.00102747 0.0118929 -0.271763 4.81345e-05 0.00357033 -0.063531
0.505044 0.0533706 -0.0010155 0.0148257 -0.272071 4.83767e-05 0.00313032 -0.06686
0.505044 0.0590085 -0.000957429 0.0176793 -0.272418 4.84165e-05 0.00303795 -0.0706128
0.505044 0.0647033 -0.000756534 0.0201721 -0.272812 4.82259e-05 0.00482236 -0.0752745
0.505044 0.0704556 -0.00049196 0.0220303 -0.27325 4.78449e-05 0.00594363 -0.0841761
0.505044 0.0762659 -0.00022584 0.0231709 -0.27374 4.7345e-05 0.00658711 -0.0947337
0.505044 0.082135 2.35228e-05 0.0235769 -0.274278 4.67937e-05 0.00697348 -0.107682
0.505044 0.0880633 0.000249108 0.0232962 -0.27487 4.6253e-05 0.00719308 -0.121658
0.505044 0.0940514 0.000523362 0.0222597 -0.275523 4.58094e-05 0.00943606 -0.140068
0.505044 0.1001 0.000665957 0.0206364 -0.276237 4.56044e-05 0.00857156 -0.159996
0.505044 0.10621 0.000715178 0.0187203 -0.277017 4.56961e-05 0.00829713 -0.179014
0.505044 0.112381 0.000690137 0.0167618 -0.277856 4.60735e-05 0.00806984 -0.197516
0.505044 0.118615 0.000584431 0.0150085 -0.278751 4.6702e-05 0.00739205 -0.214283
0.505044 0.124911 0.00041149 0.0136893 -0.279693 4.752e-05 0.00672905 -0.229218
0.505044 0.131272 0.000191762 0.0129857 -0.280676 4.84469e-05 0.00608631 -0.24179
0.505044 0.137696 -5.82287e-05 0.0130137 -0.281694 4.94016e-05 0.00527368 -0.252063
0.505044 0.144185 -0.000316143 0.0138297 -0.282745 5.03094e-05 0.00420931 -0.259537
0.505044 0.15074 -0.000535274 0.0153742 -0.283832 5.11102e-05 0.00347288 -0.264852
0.505044 0.157361 -0.00069664 0.017508 -0.284959 5.17739e-05 0.00323827 -0.269002
0.505044 0.164049 -0.000800846 0.020066 -0.286134 5.2294e-05 0.00310969 -0.272733
0.505044 0.170804 -0.000851847 0.0228803 -0.287366 5.26786e-05 0.00304341 -0.276311
0.505044 0.177628 -0.000844333 0.0257792 -0.288661 5.29467e-05 0.00349153 -0.280487
0.505044 0.18452 -0.000805504 0.0286295 -0.290025 5.31284e-05 0.00380469 -0.285483
0.505044 0.191482 -0.000725645 0.0313121 -0.291464 5.32512e-05 0.00470437 -0.291924
0.505044 0.198514 -0.000669491 0.0337955 -0.292981 5.33559e-05 0.00399369 -0.298668
0.505044 0.205618 -0.000619623 0.0361093 -0.294571 5.34576e-05 0.00354545 -0.304166
0.505044 0.212793 -0.000493374 0.0381252 -0.296241 5.35411e-05 0.00516519 -0.311746
0.505044 0.22004 -0.000358318 0.0397253 -0.297996 5.36315e-05 0.00592215 -0.322696
0.505044 0.227361 -0.000288362 0.0409945 -0.299836 5.37755e-05 0.00473051 -0.332635
0.505044 0.234755 -0.000204853 0.0419843 -0.301761 5.39748e-05 0.00580571 -0.344036
0.505044 0.242224 -8.50751e-05 0.0426491 -0.303775 5.42166e-05 0.00721845 -0.355785
0.505044 0.249769 7.26317e-06 0.0429421 -0.305877 5.45225e-05 0.00730894 -0.372565
0.505044 0.25739 3.23374e-05 0.0430632 -0.308079 5.49319e-05 0.0071014 -0.387195
0.505044 0.265087 3.52311e-05 0.0431404 -0.31037 5.54496e-05 0.00763571 -0.402445
0.505044 0.272863 -3.841e-05 0.0433786 -0.31275 5.60814e-05 0.00687425 -0.41626
0.505044 0.280717 -0.000154734 0.0439737 -0.315215 5.68063e-05 0.0064602 -0.427399
0.505044 0.28865 -0.00032285 0.0451008 -0.317759 5.75871e-05 0.00538628 -0.435803
0.505044 0.296663 -0.000510051 0.0468749 -0.320377 5.83658e-05 0.00426441 -0.440178
0.505044 0.304758 -0.000674855 0.0492756 -0.323075 5.90777e-05 0.0035033 -0.442119
0.505044 0.312933 -0.000786547 0.0521661 -0.325858 5.96682e-05 0.00303092 -0.442048
0.505044 0.321192 -0.000809995 0.0552712 -0.32874 6.0105e-05 0.00316795 -0.442834
0.505044 0.329534 -0.000738174 0.0582645 -0.331743 6.04011e-05 0.00440589 -0.446743
0.505044 0.33796 -0.000608037 0.0608762 -0.334886 6.06209e-05 0.00576279 -0.455268
0.505044 0.346471 -0.000485176 0.0630194 -0.338186 6.08743e-05 0.00658506 -0.468335
0.505044 0.355068 -0.000435617 0.0648667 -0.341653 6.13009e-05 0.0068395 -0.482561
0.505044 0.363752 -0.000563065 0.0669304 -0.345282 6.20536e-05 0.00505592 -0.493746
0.505044 0.372524 -0.000919016 0.0700349 -0.349045 6.32281e-05 0.00104719 -0.492879
0.505044 0.381384 -0.00138402 0.0748518 -0.352911 6.4774e-05 -0.00110898 -0.479306
0.505044 0.390333 -0.00190532 0.0816991 -0.35687 6.65482e-05 -0.0047652 -0.456118
0.505044 0.399373 -0.00237072 0.0905496 -0.360936 6.83687e-05 -0.00795107 -0.42243
0.505044 0.408505 -0.00256355 0.100743 -0.365149 7.00378e-05 -0.0067284 -0.388386
0.505044 0.417728 -0.00247339 0.111156 -0.369601 7.14806e-05 -0.0016067 -0.372728
0.505044 0.427044 -0.00219644 0.120971 -0.374384 7.28204e-05 0.00494129 -0.378143
0.505044 0.436455 -0.00222695 0.13035 -0.379613 7.44466e-05 0.0118763 -0.409925
0.505044 0.445961 -0.00283493 0.141536 -0.385346 7.68444e-05 0.000228195 -0.42533
0.505044 0.455562 -0.0051714 0.158668 -0.391578 8.05917e-05 -0.0183891 -0.370286
0.505044 0.465261 -0.00700764 0.185892 -0.398168 8.54189e-05 -0.0966918 -0.136614
0.505044 0.475057 -0.011036 0.223884 -0.404338 9.16961e-05 -0.0985292 0.22838
0.505044 0.484953 -0.00204682 0.255728 -0.414357 9.55082e-05 -0.200024 0.742401
0.505044 0.494948 -0.0153905 0.286809 -0.409941 0.000103383 0.42283 0.0530822
0.505044 0.505044 -0.0691423 0.215688 -0.458945 0.000166135 1.85686 -0.512634
0.51019 0 -0.000497934 0 -0.270461 9.43204e-05 0.0135928 1.90138e-32
0.51019 0.005151 -0.000554088 0.000967919 -0.270503 9.43789e-05 0.0119506 -0.00513591
0.51019 0.010354 -0.000710448 0.00192289 -0.270536 9.51029e-05 0.0128674 -0.0102634
0.51019 0.0156095 -0.00117259 0.00326538 -0.27062 9.62928e-05 0.0111322 -0.0144697
0.51019 0.0209181 -0.00186774 0.00506512 -0.270723 9.77531e-05 0.00880345 -0.0164846
0.51019 0.0262803 -0.00262583 0.00741335 -0.27086 9.9293e-05 0.00686411 -0.0167482
0.51019 0.0316966 -0.00338146 0.0102756 -0.271025 0.000100771 0.0044865 -0.0156902
0.51019 0.0371676 -0.00405542 0.0136063 -0.271226 0.000102075 0.00234779 -0.0132545
0.51019 0.0426939 -0.00450802 0.0172746 -0.27146 0.00010313 0.000770449 -0.0097708
0.51019 0.0482759 -0.00458446 0.0210932 -0.271735 0.000103867 0.0023256 -0.00718462
0.51019 0.0539143 -0.00446968 0.0248972 -0.272054 0.000104251 0.0017022 -0.00419917
0.51019 0.0596097 -0.0040447 0.0284473 -0.272415 0.00010423 0.00351229 -0.00639904
0.51019 0.0653625 -0.00324293 0.0316126 -0.272825 0.000103793 0.00783781 -0.008748
0.51019 0.0711734 -0.00224723 0.0342192 -0.273281 0.000103015 0.0115302 -0.0151684
0.51019 0.077043 -0.00121141 0.0361661 -0.273786 0.000102021 0.0147561 -0.0243557
0.51019 0.0829718 -0.000234636 0.0374142 -0.274341 0.000100951 0.0170396 -0.0363453
0.51019 0.0889605 0.000719848 0.0379952 -0.274949 9.99429e-05 0.0205117 -0.0509029
0.51019 0.0950097 0.00155456 0.0380639 -0.275616 9.92396e-05 0.023593 -0.0638345
0.51019 0.10112 0.00200934 0.0377602 -0.276347 9.90651e-05 0.0227617 -0.0785188
0.51019 0.107292 0.00208773 0.0373409 -0.277142 9.9455e-05 0.0209713 -0.090688
0.51019 0.113526 0.00183492 0.0370893 -0.277997 0.000100351 0.0187422 -0.100976
0.51019 0.119823 0.0012727 0.0372693 -0.278908 0.00010166 0.015488 -0.108151
0.51019 0.126184 0.000489769 0.0380548 -0.279863 0.000103245 0.0121918 -0.112443
0.51019 0.132609 -0.000410632 0.0395216 -0.280854 0.000104951 0.00918008 -0.114488
0.51019 0.139099 -0.00133721 0.0416429 -0.281878 0.000106631 0.00627986 -0.114958
0.51019 0.145654 -0.0021708 0.0442977 -0.282933 0.000108166 0.00426928 -0.115613
0.51019 0.152276 -0.00283582 0.0473637 -0.284025 0.000109479 0.00294641 -0.116522
0.51019 0.158964 -0.00330259 0.0507311 -0.285164 0.000110537 0.00233491 -0.117002
0.51019 0.16572 -0.00356209 0.0542636 -0.286356 0.000111339 0.00245092 -0.118024
0.51019 0.172544 -0.00363301 0.0578372 -0.287609 0.000111914 0.00289075 -0.119961
0.51019 0.179437 -0.00354903 0.0613644 -0.288932 0.00011231 0.00368249 -0.122465
0.51019 0.1864 -0.00334774 0.0647756 -0.290326 0.000112583 0.00470561 -0.125146
0.51019 0.193433 -0.0030658 0.0680062 -0.291795 0.000112791 0.00612724 -0.129053
0.51019 0.200537 -0.00280391 0.0709839 -0.293344 0.000112997 0.00561377 -0.135023
0.51019 0.207712 -0.00247702 0.0736636 -0.294969 0.000113223 0.006852 -0.144025
0.51019 0.214961 -0.00204321 0.0761063 -0.296677 0.000113472 0.0094405 -0.151605
0.51019 0.222282 -0.00163015 0.0782759 -0.298473 0.000113785 0.0105437 -0.161253
0.51019 0.229677 -0.00132293 0.0801575 -0.300356 0.000114218 0.00972537 -0.172908
0.51019 0.237147 -0.00101909 0.0818442 -0.302327 0.000114776 0.0111844 -0.184966
0.51019 0.244692 -0.000677074 0.0834306 -0.304388 0.00011544 0.0140161 -0.193905
0.51019 0.252314 -0.000485438 0.0849187 -0.306544 0.000116247 0.0129659 -0.205995
0.51019 0.260012 -0.000469709 0.0864346 -0.308794 0.00011724 0.0119822 -0.215668
0.51019 0.267788 -0.000619216 0.0881196 -0.311131 0.000118417 0.0104076 -0.222849
0.51019 0.275643 -0.000949166 0.0900543 -0.313553 0.00011976 0.00790446 -0.229534
0.51019 0.283577 -0.00141647 0.0923183 -0.31605 0.000121214 0.00516742 -0.233971
0.51019 0.291591 -0.00194808 0.0948856 -0.318621 0.000122691 0.00258386 -0.238572
0.51019 0.299686 -0.00243974 0.0976597 -0.321263 0.00012409 0.000740034 -0.245048
0.51019 0.307863 -0.00278982 0.100524 -0.323988 0.000125321 0.000134895 -0.252987
0.51019 0.316122 -0.00289144 0.103294 -0.326808 0.000126321 0.00183378 -0.265029
0.51019 0.324464 -0.00273307 0.105827 -0.329744 0.000127095 0.0044974 -0.281163
0.51019 0.332891 -0.00237381 0.108081 -0.332819 0.000127725 0.00835561 -0.299365
0.51019 0.341403 -0.00196486 0.110103 -0.336047 0.000128371 0.0114015 -0.318041
0.51019 0.350001 -0.00172023 0.11204 -0.339436 0.000129253 0.0125368 -0.338095
0.51019 0.358686 -0.00191911 0.114251 -0.342984 0.000130625 0.00893334 -0.354062
0.51019 0.367458 -0.00277453 0.117176 -0.346674 0.000132703 -0.000432907 -0.364118
0.51019 0.376319 -0.00417558 0.121201 -0.350463 0.000135528 -0.0112663 -0.367297
0.51019 0.38527 -0.00576174 0.126517 -0.354326 0.000138919 -0.0177091 -0.36527
0.51019 0.39431 -0.00724097 0.132945 -0.35828 0.000142586 -0.0227407 -0.366214
0.51019 0.403442 -0.00819371 0.140102 -0.362361 0.000146224 -0.019965 -0.376627
0.51019 0.412667 -0.00834237 0.147688 -0.366654 0.000149627 -0.00659443 -0.396991
0.51019 0.421984 -0.00793017 0.155594 -0.371247 0.00015288 0.0111033 -0.428476
0.51019 0.431395 -0.00773441 0.164186 -0.376226 0.000156431 0.0242688 -0.459656
0.51019 0.440902 -0.00912433 0.174442 -0.381522 0.000161059 0.0122595 -0.474651
0.51019 0.450504 -0.0132789 0.187566 -0.387311 0.000167521 -0.0432157 -0.450471
0.51019 0.460204 -0.020157 0.204364 -0.39285 0.000176117 -0.138187 -0.40385
0.51019 0.470001 -0.026435 0.223385 -0.4002 0.000186453 -0.235433 -0.370508
0.51019 0.479897 -0.0266156 0.244391 -0.405431 0.000197595 -0.169917 -0.500673
0.51019 0.489893 -0.0122479 0.262729 -0.421338 0.000205143 0.170601 -0.846699
0.51019 0.499991 -0.0120026 0.278745 -0.438575 0.000225956 1.27771 -1.10065
0.51019 0.51019 -0.0617547 0.247841 -0.442298 0.000331548 1.41824 -0.302944
0.515439 0 -0.00176035 0 -0.270387 0.00016209 0.017802 1.9384e-32
0.515439 0.005204 -0.00184038 0.00163953 -0.270438 0.00016244 0.0175484 -0.00728766
0.515439 0.0104605 -0.00219742 0.00326881 -0.270473 0.000163564 0.0175342 -0.0143098
0.515439 0.0157701 -0.00298586 0.0051724 -0.270573 0.000165278 0.0142221 -0.0204344
0.515439 0.0211334 -0.00402092 0.00724757 -0.270693 0.000167336 0.0107093 -0.0261738
0.515439 0.0265507 -0.00509916 0.00953142 -0.27085 0.000169501 0.00792194 -0.0314949
0.515439 0.0320228 -0.00612938 0.0119805 -0.271037 0.000171584 0.00496736 -0.0367997
0.515439 0.0375501 -0.00699119 0.0145522 -0.271257 0.000173445 0.00268619 -0.0425916
0.515439 0.0431332 -0.00751882 0.0172072 -0.271506 0.000175019 0.00159234 -0.048416
0.515439 0.0487727 -0.00758749 0.0199251 -0.271791 0.000176183 0.00409525 -0.0554799
0.515439 0.0544691 -0.00732202 0.022659 -0.272115 0.000176853 0.00614643 -0.061824
0.515439 0.060223 -0.00667343 0.0253534 -0.272475 0.000176985 0.00952251 -0.0711591
0.515439 0.066035 -0.005604 0.0280561 -0.272877 0.000176572 0.0155937 -0.0788961
0.515439 0.0719057 -0.00427791 0.0307314 -0.273322 0.000175701 0.0213269 -0.0882017
0.515439 0.0778357 -0.0028844 0.0333392 -0.273819 0.000174535 0.0260874 -0.0979206
0.515439 0.0838255 -0.00157288 0.0358627 -0.274367 0.000173268 0.0291115 -0.108001
0.515439 0.0898759 -0.000400809 0.0383779 -0.274973 0.000172126 0.0311609 -0.117322
0.515439 0.0959873 0.000534709 0.0409636 -0.275642 0.000171467 0.0329068 -0.12384
0.515439 0.10216 0.000994275 0.043599 -0.276383 0.00017146 0.0310095 -0.131274
0.515439 0.108396 0.000929946 0.0463231 -0.277195 0.00017209 0.0273494 -0.137074
0.515439 0.114694 0.00039596 0.0491981 -0.278073 0.000173286 0.0229383 -0.141434
0.515439 0.121056 -0.000504139 0.0522302 -0.279009 0.000174926 0.0182501 -0.145071
0.515439 0.127482 -0.00161432 0.0553828 -0.279992 0.000176845 0.014114 -0.148457
0.515439 0.133973 -0.00277416 0.0585937 -0.281015 0.000178868 0.010929 -0.152182
0.515439 0.14053 -0.00384212 0.061776 -0.282073 0.000180843 0.00886324 -0.157093
0.515439 0.147153 -0.00472489 0.0648766 -0.283164 0.00018266 0.00760626 -0.162798
0.515439 0.153843 -0.00538508 0.0678778 -0.284294 0.000184254 0.0066883 -0.16944
0.515439 0.1606 -0.00579359 0.0707764 -0.285468 0.000185597 0.00672622 -0.176807
0.515439 0.167425 -0.0059531 0.073576 -0.286694 0.000186693 0.00754328 -0.18467
0.515439 0.17432 -0.00590684 0.0762869 -0.28798 0.000187583 0.00851788 -0.193075
0.515439 0.181284 -0.00570362 0.0789256 -0.289333 0.000188326 0.00960993 -0.201954
0.515439 0.188318 -0.00537974 0.0815235 -0.290758 0.000188985 0.0110236 -0.210774
0.515439 0.195423 -0.00497326 0.0841025 -0.29226 0.000189623 0.0131781 -0.219373
0.515439 0.2026 -0.0045529 0.0866357 -0.29384 0.000190301 0.0142034 -0.228401
0.515439 0.20985 -0.00410166 0.0891534 -0.295498 0.000191046 0.0152521 -0.237564
0.515439 0.217172 -0.00358602 0.0917367 -0.297237 0.000191861 0.0179796 -0.245227
0.515439 0.224569 -0.0030996 0.0943747 -0.299065 0.000192782 0.0198008 -0.253403
0.515439 0.23204 -0.00274413 0.0970473 -0.300982 0.000193858 0.0187843 -0.261366
0.515439 0.239587 -0.00243734 0.0997998 -0.302987 0.000195085 0.0195118 -0.269584
0.515439 0.24721 -0.00215043 0.102722 -0.305083 0.000196441 0.0216876 -0.27353
0.515439 0.25491 -0.00205188 0.105751 -0.307276 0.000197963 0.0200091 -0.279942
0.515439 0.262687 -0.0021661 0.108871 -0.309568 0.000199683 0.0179139 -0.285198
0.515439 0.270544 -0.00246245 0.112069 -0.31195 0.00020159 0.0159759 -0.290693
0.515439 0.278479 -0.00292656 0.115304 -0.314423 0.000203644 0.0129326 -0.296078
0.515439 0.286495 -0.00345305 0.118495 -0.316977 0.000205766 0.0112564 -0.302731
0.515439 0.294591 -0.0039338 0.121544 -0.31961 0.000207855 0.0106889 -0.311621
0.515439 0.302769 -0.00428047 0.124378 -0.322324 0.000209816 0.0106234 -0.322638
0.515439 0.31103 -0.00438488 0.12696 -0.325121 0.000211581 0.0129952 -0.335832
0.515439 0.319374 -0.00421429 0.129331 -0.328015 0.000213131 0.016796 -0.350393
0.515439 0.327803 -0.00385079 0.131599 -0.331024 0.000214536 0.02016 -0.365407
0.515439 0.336317 -0.0034264 0.133929 -0.33417 0.000215945 0.0231402 -0.37949
0.515439 0.344916 -0.00314405 0.136512 -0.337469 0.000217587 0.0243462 -0.390257
0.515439 0.353602 -0.0032781 0.139518 -0.340935 0.000219749 0.0214331 -0.396941
0.515439 0.362376 -0.00408349 0.143023 -0.344571 0.000222726 0.0128083 -0.400484
0.515439 0.371239 -0.00560034 0.146982 -0.34836 0.000226711 0.000769699 -0.403354
0.515439 0.380191 -0.00753083 0.151334 -0.352267 0.000231668 -0.00958726 -0.406161
0.515439 0.389234 -0.00941364 0.156043 -0.356273 0.000237338 -0.0123788 -0.410612
0.515439 0.398368 -0.0108909 0.161032 -0.360395 0.00024339 -0.0101507 -0.420485
0.515439 0.407594 -0.0117065 0.166427 -0.364665 0.000249545 -0.000298533 -0.433107
0.515439 0.416913 -0.0119347 0.172673 -0.369147 0.000255731 0.0145311 -0.439062
0.515439 0.426326 -0.0122075 0.180335 -0.373928 0.000262225 0.0260234 -0.43306
0.515439 0.435834 -0.0135594 0.189887 -0.37911 0.000269678 0.0170143 -0.404756
0.515439 0.445438 -0.0172398 0.20122 -0.384749 0.000278957 -0.0215923 -0.365513
0.515439 0.45514 -0.0230986 0.212891 -0.391013 0.000290634 -0.0945962 -0.328923
0.515439 0.464939 -0.0297551 0.22302 -0.397467 0.000304294 -0.148669 -0.378307
0.515439 0.474837 -0.0319432 0.227902 -0.405189 0.000318174 -0.121492 -0.513574
0.515439 0.484835 -0.0261181 0.231467 -0.412581 0.000330504 0.116511 -0.83204
0.515439 0.494934 -0.0204398 0.239084 -0.421161 0.000346404 0.761276 -1.01804
0.515439 0.505135 -0.0254136 0.24504 -0.439109 0.000403138 1.13498 -0.563152
0.515439 0.515439 -0.0583128 0.237413 -0.437647 0.000558603 0.89754 -0.0737868
0.520794 0 -0.00363477 0 -0.270335 0.000244467 0.026285 1.97597e-32
0.520794 0.00525806 -0.00376361 0.00221261 -0.270384 0.000244977 0.0254521 -0.00721475
0.520794 0.0105692 -0.00424062 0.00440361 -0.270427 0.000246344 0.0251661 -0.0146591
0.520794 0.015934 -0.0051387 0.0066979 -0.270536 0.000248374 0.0215082 -0.0217979
0.520794 0.0213529 -0.00625514 0.00898079 -0.270672 0.000250812 0.0179171 -0.0292206
0.520794 0.0268266 -0.00740926 0.0112849 -0.270845 0.000253406 0.0150569 -0.0366027
0.520794 0.0323555 -0.00848179 0.0135961 -0.271047 0.00025594 0.0124065 -0.0442196
0.520794 0.0379402 -0.00935149 0.0159108 -0.271282 0.000258237 0.0104804 -0.0524587
0.520794 0.0435813 -0.00987948 0.0182508 -0.271545 0.000260156 0.00959068 -0.0605616
0.520794 0.0492794 -0.00996562 0.0206637 -0.271836 0.000261591 0.0117855 -0.069468
0.520794 0.055035 -0.00968658 0.0231915 -0.272163 0.000262504 0.0143038 -0.0764136
0.520794 0.0608487 -0.00905305 0.0258515 -0.272526 0.000262885 0.0171881 -0.0850781
0.520794 0.0667211 -0.00804025 0.0287339 -0.272926 0.000262759 0.0224321 -0.0906517
0.520794 0.0726528 -0.00677437 0.0318676 -0.273369 0.000262237 0.0278352 -0.0959507
0.520794 0.0786444 -0.00544355 0.0352554 -0.273862 0.000261492 0.0322598 -0.100466
0.520794 0.0846965 -0.00422845 0.0388959 -0.274413 0.000260708 0.0343575 -0.103958
0.520794 0.0908097 -0.0032007 0.0427818 -0.275028 0.000260069 0.0351839 -0.107577
0.520794 0.0969846 -0.00242931 0.0469144 -0.275706 0.000259772 0.0361513 -0.109164
0.520794 0.103222 -0.00211134 0.051205 -0.276461 0.00025996 0.0337155 -0.111748
0.520794 0.109522 -0.002296 0.0555494 -0.27729 0.000260684 0.0290698 -0.113688
0.520794 0.115886 -0.00289359 0.0598364 -0.278186 0.000261907 0.0244271 -0.116022
0.520794 0.122314 -0.00377256 0.0639576 -0.27914 0.000263531 0.0201927 -0.119323
0.520794 0.128807 -0.00477806 0.0678257 -0.280142 0.000265421 0.0166983 -0.123973
0.520794 0.135365 -0.00575486 0.0713876 -0.281182 0.000267434 0.0146282 -0.129904
0.520794 0.14199 -0.00659563 0.0746293 -0.282258 0.00026945 0.0136389 -0.137486
0.520794 0.148682 -0.00725086 0.07758 -0.283372 0.000271385 0.0130299 -0.145897
0.520794 0.155441 -0.00769559 0.0802822 -0.284527 0.000273189 0.0127956 -0.155139
0.520794 0.162268 -0.00791327 0.0827926 -0.285729 0.000274839 0.0132834 -0.164907
0.520794 0.169165 -0.00791891 0.0851748 -0.286985 0.000276343 0.0143707 -0.174901
0.520794 0.176131 -0.0077603 0.0874891 -0.288302 0.000277741 0.0155881 -0.185129
0.520794 0.183167 -0.00749117 0.0897932 -0.289687 0.00027909 0.0166046 -0.19533
0.520794 0.190274 -0.00714828 0.0921449 -0.291144 0.000280441 0.0172535 -0.204676
0.520794 0.197454 -0.00674433 0.0945856 -0.292676 0.00028184 0.0190023 -0.213284
0.520794 0.204705 -0.00633937 0.0971343 -0.294289 0.000283329 0.0195925 -0.221116
0.520794 0.21203 -0.00593478 0.0998144 -0.295984 0.000284924 0.0200758 -0.228876
0.520794 0.219429 -0.00549971 0.102685 -0.29776 0.000286617 0.0221348 -0.234718
0.520794 0.226902 -0.00510847 0.105746 -0.299625 0.000288426 0.0231824 -0.240151
0.520794 0.234451 -0.00483281 0.108952 -0.301582 0.00029038 0.0219487 -0.245389
0.520794 0.242076 -0.00461777 0.112293 -0.303632 0.000292466 0.0220406 -0.251284
0.520794 0.249778 -0.00444535 0.115801 -0.30577 0.000294668 0.0236416 -0.25455
0.520794 0.257558 -0.00444305 0.119396 -0.308009 0.000297011 0.0217371 -0.260213
0.520794 0.265417 -0.00461865 0.123001 -0.310343 0.000299511 0.0197436 -0.266173
0.520794 0.273355 -0.00494011 0.12656 -0.312769 0.000302147 0.0175701 -0.272405
0.520794 0.281372 -0.00534569 0.129979 -0.315283 0.000304866 0.0156769 -0.280343
0.520794 0.289471 -0.00572385 0.133189 -0.317876 0.000307587 0.0153844 -0.289666
0.520794 0.297652 -0.00599278 0.136148 -0.32055 0.000310229 0.0160739 -0.300427
0.520794 0.305915 -0.0060862 0.138853 -0.323306 0.000312734 0.0177869 -0.313334
0.520794 0.314262 -0.00596448 0.141385 -0.326155 0.000315082 0.02102 -0.326594
0.520794 0.322693 -0.00567246 0.143891 -0.32911 0.000317319 0.0244156 -0.338303
0.520794 0.331209 -0.00532946 0.146517 -0.332191 0.000319574 0.0267572 -0.348355
0.520794 0.339811 -0.00509833 0.149404 -0.335415 0.000322048 0.0273644 -0.356223
0.520794 0.3485 -0.00518691 0.152649 -0.338795 0.00032501 0.0248576 -0.361166
0.520794 0.357276 -0.00581187 0.156245 -0.34234 0.000328767 0.0184992 -0.364951
0.520794 0.366142 -0.0070973 0.16007 -0.346046 0.000333594 0.0084339 -0.370087
0.520794 0.375096 -0.00894643 0.163953 -0.349896 0.000339622 -0.00257462 -0.379196
0.520794 0.384141 -0.0110184 0.167835 -0.353865 0.000346754 -0.010402 -0.389085
0.520794 0.393278 -0.012889 0.171799 -0.357944 0.000354715 -0.00971985 -0.397543
0.520794 0.402507 -0.0143228 0.176023 -0.362162 0.000363219 -0.00455266 -0.404257
0.520794 0.411828 -0.0153168 0.180857 -0.366563 0.00037212 0.00365826 -0.405532
0.520794 0.421244 -0.016212 0.186766 -0.371225 0.000381519 0.010526 -0.393959
0.520794 0.430755 -0.0177466 0.194049 -0.376195 0.000391817 0.00556284 -0.368898
0.520794 0.440362 -0.0207486 0.202412 -0.381608 0.000403746 -0.0209412 -0.335911
0.520794 0.450067 -0.0254566 0.210721 -0.387339 0.000417961 -0.0652059 -0.321869
0.520794 0.459869 -0.0307137 0.216864 -0.393724 0.000434591 -0.102716 -0.358203
0.520794 0.46977 -0.0334256 0.219147 -0.400411 0.000451865 -0.0700637 -0.485124
0.520794 0.479771 -0.030732 0.217971 -0.407735 0.000467736 0.0955686 -0.694401
0.520794 0.489873 -0.0228487 0.217209 -0.418425 0.000484117 0.470614 -0.871348
0.520794 0.500076 -0.0230994 0.221647 -0.426332 0.000521671 0.813356 -0.703742
0.520794 0.510383 -0.0364567 0.221234 -0.438669 0.000630391 0.83193 -0.314437
0.520794 0.520794 -0.0593772 0.215218 -0.436609 0.000848983 0.590927 -0.0338705
0.526258 0 -0.00612034 0 -0.270306 0.000337492 0.0327207 2.0149e-32
0.526258 0.00531322 -0.00628482 0.00271149 -0.270363 0.000338015 0.0323208 -0.0058346
0.526258 0.0106801 -0.00679221 0.0053851 -0.270412 0.000339443 0.0315624 -0.0119063
0.526258 0.0161011 -0.00766581 0.00807728 -0.270531 0.000341566 0.0280602 -0.0179454
0.526258 0.0215769 -0.00874186 0.0107046 -0.27068 0.00034414 0.0245131 -0.0244439
0.526258 0.027108 -0.00986165 0.0132902 -0.270867 0.00034692 0.021592 -0.0309291
0.526258 0.0326949 -0.0108961 0.0158413 -0.271085 0.000349688 0.0191585 -0.0373789
0.526258 0.0383382 -0.0117316 0.0183739 -0.271334 0.000352253 0.0175747 -0.0443086
0.526258 0.0440385 -0.0122547 0.0209282 -0.27161 0.000354465 0.0169574 -0.0510135
0.526258 0.0497964 -0.0123925 0.0235668 -0.271914 0.000356234 0.0188084 -0.0583847
0.526258 0.0556124 -0.0121924 0.0263548 -0.272249 0.00035753 0.0211956 -0.0639373
0.526258 0.0614871 -0.0116867 0.0293312 -0.272622 0.000358353 0.0230413 -0.0701588
0.526258 0.0674211 -0.010858 0.0325699 -0.273031 0.000358734 0.0272057 -0.0740725
0.526258 0.073415 -0.00980947 0.0361206 -0.273481 0.000358775 0.0318652 -0.0773979
0.526258 0.0794694 -0.00871472 0.0400001 -0.273985 0.000358625 0.0352345 -0.0795627
0.526258 0.085585 -0.00772566 0.0441826 -0.274547 0.00035843 0.0364974 -0.0805623
0.526258 0.0917623 -0.00690841 0.0486203 -0.275175 0.00035832 0.0366204 -0.0815123
0.526258 0.098002 -0.00631853 0.053268 -0.275867 0.000358429 0.0367999 -0.0809703
0.526258 0.104305 -0.00609067 0.0580047 -0.276635 0.000358879 0.0340243 -0.0811701
0.526258 0.110671 -0.00624502 0.0626724 -0.277476 0.000359736 0.0298715 -0.0824249
0.526258 0.117102 -0.00669827 0.0671415 -0.278382 0.000360991 0.0261626 -0.0850385
0.526258 0.123597 -0.00733677 0.0713188 -0.279345 0.000362585 0.0231414 -0.0886837
0.526258 0.130158 -0.00803251 0.075145 -0.280357 0.00036443 0.0212454 -0.0939823
0.526258 0.136785 -0.00867342 0.0786118 -0.281411 0.00036643 0.0205982 -0.10047
0.526258 0.14348 -0.00919556 0.0817479 -0.282504 0.000368504 0.0203831 -0.107805
0.526258 0.150242 -0.0095674 0.0845999 -0.283639 0.000370594 0.0204693 -0.115964
0.526258 0.157072 -0.0097744 0.0872269 -0.28482 0.000372665 0.020797 -0.124811
0.526258 0.163971 -0.00981107 0.0896987 -0.28605 0.000374706 0.021649 -0.134012
0.526258 0.170939 -0.0097004 0.0920889 -0.287336 0.000376731 0.0226656 -0.143145
0.526258 0.177979 -0.00948803 0.0944677 -0.288686 0.000378778 0.0234512 -0.151468
0.526258 0.185089 -0.00921532 0.0968872 -0.290105 0.000380893 0.0240125 -0.159533
0.526258 0.192271 -0.00890404 0.0993897 -0.291598 0.000383111 0.024448 -0.167609
0.526258 0.199525 -0.00856727 0.102018 -0.293167 0.00038546 0.0255989 -0.175359
0.526258 0.206853 -0.00825 0.104795 -0.294818 0.000387956 0.0256516 -0.182164
0.526258 0.214254 -0.00794945 0.107732 -0.296553 0.000390596 0.0255551 -0.188704
0.526258 0.221731 -0.007642 0.110864 -0.298371 0.000393358 0.0267077 -0.193408
0.526258 0.229283 -0.00737327 0.114174 -0.300279 0.00039624 0.0272818 -0.19814
0.526258 0.236911 -0.0071902 0.117616 -0.302277 0.000399246 0.0262318 -0.203107
0.526258 0.244616 -0.00705989 0.121167 -0.304369 0.000402361 0.0261247 -0.208684
0.526258 0.252399 -0.00697361 0.124831 -0.306552 0.000405562 0.0271994 -0.212142