TITLE = SQUARE_CYLINDER_RE_22000
VARIABLES = "X" ,  "Y" , "u0" , "v0" , "p0" , "nu0"  
ZONE   N=30576,E=60444,F=FEPOINT,ET=TRIANGLE
0.5 0 0 0 -0.332324 0
0.5 0.00504812 0 0 -0.332428 0
0.5 0.0101472 0 0 -0.332379 0
0.5 0.0152978 0 0 -0.33241 0
0.5 0.0205003 0 0 -0.332425 0
0.5 0.0257554 0 0 -0.332455 0
0.5 0.0310636 0 0 -0.332488 0
0.5 0.0364253 0 0 -0.332529 0
0.5 0.0418412 0 0 -0.332577 0
0.5 0.0473118 0 0 -0.332633 0
0.5 0.0528376 0 0 -0.332696 0
0.5 0.0584191 0 0 -0.332766 0
0.5 0.0640571 0 0 -0.332845 0
0.5 0.0697519 0 0 -0.332932 0
0.5 0.0755043 0 0 -0.333027 0
0.5 0.0813147 0 0 -0.333131 0
0.5 0.0871838 0 0 -0.333243 0
0.5 0.0931121 0 0 -0.333365 0
0.5 0.0991003 0 0 -0.333496 0
0.5 0.105149 0 0 -0.333637 0
0.5 0.111259 0 0 -0.333787 0
0.5 0.11743 0 0 -0.333948 0
0.5 0.123664 0 0 -0.334119 0
0.5 0.129961 0 0 -0.334301 0
0.5 0.136321 0 0 -0.334494 0
0.5 0.142745 0 0 -0.334698 0
0.5 0.149235 0 0 -0.334913 0
0.5 0.155789 0 0 -0.335141 0
0.5 0.16241 0 0 -0.33538 0
0.5 0.169098 0 0 -0.335633 0
0.5 0.175854 0 0 -0.335898 0
0.5 0.182677 0 0 -0.336176 0
0.5 0.18957 0 0 -0.336468 0
0.5 0.196532 0 0 -0.336773 0
0.5 0.203564 0 0 -0.337093 0
0.5 0.210667 0 0 -0.337428 0
0.5 0.217842 0 0 -0.337778 0
0.5 0.22509 0 0 -0.338143 0
0.5 0.232411 0 0 -0.338523 0
0.5 0.239805 0 0 -0.338921 0
0.5 0.247274 0 0 -0.339335 0
0.5 0.254819 0 0 -0.339767 0
0.5 0.26244 0 0 -0.340218 0
0.5 0.270138 0 0 -0.340687 0
0.5 0.277913 0 0 -0.341177 0
0.5 0.285767 0 0 -0.341687 0
0.5 0.293701 0 0 -0.342219 0
0.5 0.301714 0 0 -0.342775 0
0.5 0.309808 0 0 -0.343355 0
0.5 0.317984 0 0 -0.343961 0
0.5 0.326243 0 0 -0.344596 0
0.5 0.334585 0 0 -0.34526 0
0.5 0.343011 0 0 -0.345958 0
0.5 0.351522 0 0 -0.346691 0
0.5 0.360119 0 0 -0.347464 0
0.5 0.368803 0 0 -0.348282 0
0.5 0.377575 0 0 -0.34915 0
0.5 0.386435 0 0 -0.350074 0
0.5 0.395385 0 0 -0.351064 0
0.5 0.404425 0 0 -0.352133 0
0.5 0.413556 0 0 -0.353289 0
0.5 0.42278 0 0 -0.354565 0
0.5 0.432096 0 0 -0.355954 0
0.5 0.441507 0 0 -0.357569 0
0.5 0.451013 0 0 -0.35928 0
0.5 0.460614 0 0 -0.361594 0
0.5 0.470313 0 0 -0.363699 0
0.5 0.480109 0 0 -0.368042 0
0.5 0.490005 0 0 -0.368293 0
0.5 0.5 0 0 -0.414935 0
0.505044 0 -0.000195169 0 -0.332442 7.0009e-05
0.505044 0.00509904 -0.000590007 0.00142158 -0.332474 6.84409e-05
0.505044 0.0102496 -0.000483789 0.00268081 -0.332469 6.83613e-05
0.505044 0.0154521 -0.000522308 0.00405675 -0.332491 6.84307e-05
0.505044 0.0207071 -0.000506667 0.00540827 -0.33251 6.85093e-05
0.505044 0.0260153 -0.000511851 0.00679172 -0.33254 6.85936e-05
0.505044 0.031377 -0.000508633 0.00818278 -0.332574 6.86787e-05
0.505044 0.0367928 -0.000508619 0.00959104 -0.332616 6.87656e-05
0.505044 0.0422633 -0.000507352 0.0110127 -0.332666 6.88537e-05
0.505044 0.047789 -0.000506565 0.0124494 -0.332723 6.89429e-05
0.505044 0.0533706 -0.0005056 0.0139005 -0.332787 6.90333e-05
0.505044 0.0590085 -0.000504718 0.0153663 -0.33286 6.91248e-05
0.505044 0.0647033 -0.000503826 0.0168469 -0.33294 6.92172e-05
0.505044 0.0704556 -0.000502963 0.0183422 -0.333029 6.93106e-05
0.505044 0.0762659 -0.00050212 0.0198525 -0.333126 6.9405e-05
0.505044 0.082135 -0.000501303 0.0213777 -0.333233 6.95002e-05
0.505044 0.0880633 -0.000500513 0.022918 -0.333348 6.95963e-05
0.505044 0.0940514 -0.000499753 0.0244734 -0.333473 6.96933e-05
0.505044 0.1001 -0.000499027 0.0260441 -0.333607 6.97912e-05
0.505044 0.10621 -0.000498336 0.02763 -0.333751 6.98898e-05
0.505044 0.112381 -0.000497685 0.0292314 -0.333905 6.99894e-05
0.505044 0.118615 -0.000497078 0.0308483 -0.334069 7.00897e-05
0.505044 0.124911 -0.000496519 0.0324808 -0.334245 7.0191e-05
0.505044 0.131272 -0.000496015 0.0341291 -0.334431 7.02931e-05
0.505044 0.137696 -0.000495572 0.0357934 -0.334628 7.03962e-05
0.505044 0.144185 -0.000495199 0.0374737 -0.334836 7.05002e-05
0.505044 0.15074 -0.000494905 0.0391705 -0.335057 7.06053e-05
0.505044 0.157361 -0.000494703 0.0408838 -0.33529 7.07115e-05
0.505044 0.164049 -0.000494605 0.042614 -0.335535 7.0819e-05
0.505044 0.170804 -0.000494627 0.0443615 -0.335792 7.09277e-05
0.505044 0.177628 -0.000494787 0.0461266 -0.336063 7.10379e-05
0.505044 0.18452 -0.000495102 0.0479099 -0.336348 7.11497e-05
0.505044 0.191482 -0.000495601 0.0497119 -0.336646 7.12634e-05
0.505044 0.198514 -0.000496276 0.0515333 -0.336959 7.13789e-05
0.505044 0.205618 -0.000496926 0.0533748 -0.337286 7.14964e-05
0.505044 0.212793 -0.000497325 0.0552368 -0.337628 7.16154e-05
0.505044 0.22004 -0.000498151 0.0571197 -0.337986 7.17355e-05
0.505044 0.227361 -0.000499751 0.0590245 -0.338359 7.18585e-05
0.505044 0.234755 -0.000501843 0.060953 -0.338749 7.19848e-05
0.505044 0.242224 -0.000504524 0.0629072 -0.339156 7.21152e-05
0.505044 0.249769 -0.00050782 0.0648896 -0.339581 7.22502e-05
0.505044 0.25739 -0.000511817 0.0669027 -0.340024 7.23906e-05
0.505044 0.265087 -0.000516616 0.0689493 -0.340486 7.25372e-05
0.505044 0.272863 -0.00052236 0.071033 -0.340967 7.26908e-05
0.505044 0.280717 -0.000529209 0.073158 -0.34147 7.28523e-05
0.505044 0.28865 -0.000537361 0.0753292 -0.341994 7.30232e-05
0.505044 0.296663 -0.000547053 0.0775523 -0.342542 7.32046e-05
0.505044 0.304758 -0.000558572 0.0798343 -0.343113 7.33983e-05
0.505044 0.312933 -0.000572266 0.0821837 -0.343711 7.36062e-05
0.505044 0.321192 -0.000588561 0.0846104 -0.344337 7.38305e-05
0.505044 0.329534 -0.00060799 0.0871266 -0.344993 7.40739e-05
0.505044 0.33796 -0.000631192 0.0897468 -0.345682 7.43395e-05
0.505044 0.346471 -0.000659028 0.0924892 -0.346406 7.46312e-05
0.505044 0.355068 -0.000692448 0.0953756 -0.34717 7.49535e-05
0.505044 0.363752 -0.000732994 0.0984333 -0.347978 7.5312e-05
0.505044 0.372524 -0.000781918 0.101696 -0.348837 7.57134e-05
0.505044 0.381384 -0.000842556 0.105207 -0.349752 7.61663e-05
0.505044 0.390333 -0.000915468 0.10902 -0.350734 7.66807e-05
0.505044 0.399373 -0.00101019 0.113204 -0.351793 7.72707e-05
0.505044 0.408505 -0.00111959 0.11785 -0.352945 7.79507e-05
0.505044 0.417728 -0.00127972 0.123077 -0.35421 7.87479e-05
0.505044 0.427044 -0.00143443 0.129038 -0.355615 7.96785e-05
0.505044 0.436455 -0.00174994 0.135955 -0.357192 8.08086e-05
0.505044 0.445961 -0.00188506 0.14407 -0.359006 8.21258e-05
0.505044 0.455562 -0.00268344 0.153859 -0.361065 8.38506e-05
0.505044 0.465261 -0.00226213 0.165362 -0.363738 8.57567e-05
0.505044 0.475057 -0.00483909 0.180746 -0.365892 8.87931e-05
0.505044 0.484953 0.000243376 0.192219 -0.373291 9.1331e-05
0.505044 0.494948 -0.0211447 0.234485 -0.363927 0.000103915
0.505044 0.505044 -0.104307 0.225424 -0.411029 0.000178899
0.51019 0 -0.0021492 0 -0.332406 0.000154386
0.51019 0.005151 -0.00233558 0.00212255 -0.332458 0.000154367
0.51019 0.010354 -0.00232751 0.00413449 -0.332447 0.000154399
0.51019 0.0156095 -0.00234267 0.00622184 -0.33247 0.000154458
0.51019 0.0209181 -0.00233953 0.00831347 -0.332489 0.000154523
0.51019 0.0262803 -0.00234233 0.0104345 -0.332519 0.000154593
0.51019 0.0316966 -0.00234159 0.012575 -0.332555 0.000154666
0.51019 0.0371676 -0.00234194 0.0147384 -0.332598 0.000154741
0.51019 0.0426939 -0.00234154 0.0169233 -0.332648 0.000154818
0.51019 0.0482759 -0.00234126 0.0191302 -0.332706 0.000154897
0.51019 0.0539143 -0.00234076 0.0213592 -0.332772 0.000154976
0.51019 0.0596097 -0.00234022 0.0236104 -0.332845 0.000155057
0.51019 0.0653625 -0.00233958 0.0258838 -0.332927 0.000155139
0.51019 0.0711734 -0.00233886 0.0281795 -0.333018 0.000155221
0.51019 0.077043 -0.00233807 0.0304978 -0.333117 0.000155305
0.51019 0.0829718 -0.00233722 0.0328386 -0.333225 0.000155389
0.51019 0.0889605 -0.0023363 0.0352022 -0.333343 0.000155474
0.51019 0.0950097 -0.00233532 0.0375886 -0.33347 0.000155559
0.51019 0.10112 -0.00233428 0.0399981 -0.333606 0.000155645
0.51019 0.107292 -0.0023332 0.0424306 -0.333753 0.000155731
0.51019 0.113526 -0.00233209 0.0448864 -0.33391 0.000155818
0.51019 0.119823 -0.00233096 0.0473657 -0.334077 0.000155905
0.51019 0.126184 -0.00232982 0.0498685 -0.334256 0.000155993
0.51019 0.132609 -0.00232871 0.0523951 -0.334445 0.000156082
0.51019 0.139099 -0.00232764 0.0549458 -0.334646 0.000156171
0.51019 0.145654 -0.00232664 0.0575206 -0.334859 0.00015626
0.51019 0.152276 -0.00232577 0.06012 -0.335083 0.000156351
0.51019 0.158964 -0.00232505 0.0627443 -0.33532 0.000156443
0.51019 0.16572 -0.00232456 0.0653937 -0.33557 0.000156536
0.51019 0.172544 -0.00232434 0.0680687 -0.335833 0.00015663
0.51019 0.179437 -0.00232447 0.0707699 -0.336109 0.000156727
0.51019 0.1864 -0.00232504 0.0734978 -0.336399 0.000156825
0.51019 0.193433 -0.00232612 0.076253 -0.336703 0.000156926
0.51019 0.200537 -0.00232779 0.0790364 -0.337021 0.00015703
0.51019 0.207712 -0.00232979 0.081849 -0.337355 0.000157137
0.51019 0.214961 -0.00233172 0.0846921 -0.337703 0.000157245
0.51019 0.222282 -0.00233425 0.0875665 -0.338068 0.000157355
0.51019 0.229677 -0.00233843 0.0904721 -0.338448 0.000157469
0.51019 0.237147 -0.00234454 0.0934104 -0.338845 0.000157589
0.51019 0.244692 -0.00235269 0.0963838 -0.33926 0.000157717
0.51019 0.252314 -0.00236307 0.0993946 -0.339692 0.000157855
0.51019 0.260012 -0.00237603 0.102445 -0.340143 0.000158003
0.51019 0.267788 -0.00239201 0.10554 -0.340614 0.000158164
0.51019 0.275643 -0.00241152 0.108681 -0.341105 0.00015834
0.51019 0.283577 -0.00243522 0.111873 -0.341617 0.000158533
0.51019 0.291591 -0.00246386 0.115123 -0.342151 0.000158746
0.51019 0.299686 -0.00249836 0.118434 -0.342708 0.000158982
0.51019 0.307863 -0.00253981 0.121816 -0.343291 0.000159245
0.51019 0.316122 -0.00258956 0.125276 -0.3439 0.000159539
0.51019 0.324464 -0.00264923 0.128825 -0.344538 0.00015987
0.51019 0.332891 -0.00272083 0.132475 -0.345207 0.000160244
0.51019 0.341403 -0.00280682 0.136241 -0.345909 0.000160668
0.51019 0.350001 -0.00291032 0.14014 -0.346647 0.000161152
0.51019 0.358686 -0.00303521 0.144194 -0.347426 0.000161706
0.51019 0.367458 -0.00318649 0.148429 -0.348251 0.000162344
0.51019 0.376319 -0.00337052 0.152879 -0.349126 0.000163082
0.51019 0.38527 -0.00359578 0.157581 -0.35006 0.00016394
0.51019 0.39431 -0.00387296 0.162587 -0.351061 0.000164944
0.51019 0.403442 -0.00421769 0.167959 -0.35214 0.000166126
0.51019 0.412667 -0.00464767 0.173777 -0.353318 0.000167528
0.51019 0.421984 -0.00519651 0.180146 -0.354597 0.000169206
0.51019 0.431395 -0.00588513 0.187202 -0.35605 0.000171229
0.51019 0.440902 -0.00681263 0.195138 -0.357605 0.000173709
0.51019 0.450504 -0.00792328 0.204219 -0.359588 0.000176755
0.51019 0.460204 -0.00965389 0.214969 -0.361409 0.000180663
0.51019 0.470001 -0.0112417 0.227615 -0.365008 0.000185552
0.51019 0.479897 -0.0146924 0.245582 -0.366109 0.000192623
0.51019 0.489893 -0.0169625 0.267596 -0.375072 0.000203618
0.51019 0.499991 -0.0567398 0.298001 -0.386997 0.000242511
0.51019 0.51019 -0.125231 0.282325 -0.391889 0.000340425
0.515439 0 -0.00438989 0 -0.33253 0.000269266
0.515439 0.005204 -0.00449766 0.00231624 -0.332549 0.000269247
0.515439 0.0104605 -0.00449784 0.00459993 -0.332555 0.000269258
0.515439 0.0157701 -0.00451249 0.00691919 -0.332573 0.00026929
0.515439 0.0211334 -0.00451277 0.00925764 -0.332595 0.000269332
0.515439 0.0265507 -0.00451578 0.0116224 -0.332625 0.000269381
0.515439 0.0320228 -0.00451612 0.0140105 -0.332661 0.000269435
0.515439 0.0375501 -0.00451665 0.016423 -0.332705 0.000269492
0.515439 0.0431332 -0.00451649 0.0188595 -0.332757 0.000269551
0.515439 0.0487727 -0.00451614 0.0213204 -0.332816 0.000269612
0.515439 0.0544691 -0.00451547 0.0238055 -0.332883 0.000269675
0.515439 0.060223 -0.00451459 0.0263151 -0.332958 0.000269739
0.515439 0.066035 -0.00451347 0.0288492 -0.333042 0.000269804
0.515439 0.0719057 -0.00451214 0.0314081 -0.333135 0.00026987
0.515439 0.0778357 -0.00451061 0.0339917 -0.333236 0.000269937
0.515439 0.0838255 -0.00450889 0.0366003 -0.333347 0.000270004
0.515439 0.0898759 -0.00450698 0.039234 -0.333467 0.000270071
0.515439 0.0959873 -0.0045049 0.0418929 -0.333596 0.000270139
0.515439 0.10216 -0.00450266 0.0445771 -0.333736 0.000270207
0.515439 0.108396 -0.00450028 0.0472869 -0.333886 0.000270274
0.515439 0.114694 -0.00449778 0.0500224 -0.334046 0.000270342
0.515439 0.121056 -0.00449519 0.0527837 -0.334218 0.00027041
0.515439 0.127482 -0.00449254 0.055571 -0.3344 0.000270478
0.515439 0.133973 -0.00448988 0.0583846 -0.334593 0.000270547
0.515439 0.14053 -0.00448726 0.0612247 -0.334799 0.000270615
0.515439 0.147153 -0.00448472 0.0640915 -0.335016 0.000270684
0.515439 0.153843 -0.00448235 0.0669852 -0.335245 0.000270754
0.515439 0.1606 -0.00448022 0.0699063 -0.335487 0.000270825
0.515439 0.167425 -0.00447843 0.0728551 -0.335742 0.000270897
0.515439 0.17432 -0.00447709 0.0758319 -0.336011 0.000270971
0.515439 0.181284 -0.00447631 0.0788373 -0.336293 0.000271047
0.515439 0.188318 -0.00447625 0.0818717 -0.336589 0.000271126
0.515439 0.195423 -0.00447706 0.084936 -0.336899 0.000271209
0.515439 0.2026 -0.00447888 0.0880307 -0.337225 0.000271296
0.515439 0.20985 -0.00448169 0.091157 -0.337566 0.000271388
0.515439 0.217172 -0.004485 0.0943165 -0.337922 0.000271481
0.515439 0.224569 -0.00448885 0.09751 -0.338294 0.000271576
0.515439 0.23204 -0.00449482 0.100737 -0.338683 0.000271677
0.515439 0.239587 -0.00450386 0.104 -0.339089 0.000271789
0.515439 0.24721 -0.00451618 0.107299 -0.339513 0.000271914
0.515439 0.25491 -0.00453217 0.110636 -0.339955 0.000272056
0.515439 0.262687 -0.00455246 0.114015 -0.340416 0.000272216
0.515439 0.270544 -0.00457777 0.117438 -0.340898 0.000272398
0.515439 0.278479 -0.00460898 0.120908 -0.3414 0.000272606
0.515439 0.286495 -0.00464715 0.124429 -0.341925 0.000272844
0.515439 0.294591 -0.00469352 0.128006 -0.342472 0.000273118
0.515439 0.302769 -0.00474961 0.131644 -0.343044 0.000273432
0.515439 0.31103 -0.00481725 0.135349 -0.343642 0.000273795
0.515439 0.319374 -0.00489862 0.139129 -0.344268 0.000274215
0.515439 0.327803 -0.00499641 0.142993 -0.344924 0.000274701
0.515439 0.336317 -0.00511391 0.146951 -0.345613 0.000275266
0.515439 0.344916 -0.00525518 0.151017 -0.346337 0.000275922
0.515439 0.353602 -0.00542534 0.155206 -0.3471 0.000276688
0.515439 0.362376 -0.00563065 0.159537 -0.347907 0.000277582
0.515439 0.371239 -0.00587949 0.164033 -0.348764 0.000278632
0.515439 0.380191 -0.00618175 0.168722 -0.349676 0.000279866
0.515439 0.389234 -0.00655226 0.17364 -0.350653 0.000281324
0.515439 0.398368 -0.00700623 0.17883 -0.351705 0.000283054
0.515439 0.407594 -0.00757392 0.184349 -0.352846 0.000285118
0.515439 0.416913 -0.00827451 0.190265 -0.354098 0.000287595
0.515439 0.426326 -0.00918423 0.196682 -0.355474 0.000290595
0.515439 0.435834 -0.0103028 0.203693 -0.357043 0.000294252
0.515439 0.445438 -0.0118653 0.211558 -0.358747 0.000298781
0.515439 0.45514 -0.0137447 0.220272 -0.360952 0.000304434
0.515439 0.464939 -0.0166872 0.23091 -0.362964 0.000311709
0.515439 0.474837 -0.0203536 0.242486 -0.366797 0.000321295
0.515439 0.484835 -0.0259771 0.259866 -0.369268 0.000335086
0.515439 0.494934 -0.0475141 0.282924 -0.375575 0.000362855
0.515439 0.505135 -0.0858261 0.290834 -0.390448 0.000428488
0.515439 0.515439 -0.127855 0.281058 -0.384624 0.000539773
0.520794 0 -0.00684965 0 -0.332677 0.000403588
0.520794 0.00525806 -0.0068787 0.00237619 -0.3327 0.000403518
0.520794 0.0105692 -0.00688909 0.00475275 -0.332703 0.000403503
0.520794 0.015934 -0.00689722 0.00715574 -0.332723 0.000403517
0.520794 0.0213529 -0.00690043 0.0095806 -0.332745 0.000403547
0.520794 0.0268266 -0.0069028 0.0120303 -0.332775 0.000403586
0.520794 0.0323555 -0.00690368 0.0145045 -0.332813 0.000403632
0.520794 0.0379402 -0.00690407 0.0170033 -0.332858 0.000403682
0.520794 0.0435813 -0.0069038 0.019527 -0.33291 0.000403736
0.520794 0.0492794 -0.00690314 0.0220757 -0.33297 0.000403792
0.520794 0.055035 -0.00690206 0.0246494 -0.333039 0.000403851
0.520794 0.0608487 -0.00690064 0.0272483 -0.333116 0.000403912
0.520794 0.0667211 -0.00689887 0.0298725 -0.333201 0.000403974
0.520794 0.0726528 -0.00689678 0.0325222 -0.333296 0.000404037
0.520794 0.0786444 -0.00689438 0.0351975 -0.333399 0.0004041
0.520794 0.0846965 -0.00689169 0.0378984 -0.333512 0.000404164
0.520794 0.0908097 -0.0068887 0.0406252 -0.333634 0.000404229
0.520794 0.0969846 -0.00688545 0.043378 -0.333766 0.000404294
0.520794 0.103222 -0.00688196 0.046157 -0.333909 0.000404358
0.520794 0.109522 -0.00687824 0.0489622 -0.334061 0.000404422
0.520794 0.115886 -0.00687433 0.0517939 -0.334225 0.000404487
0.520794 0.122314 -0.00687027 0.0546521 -0.334399 0.000404551
0.520794 0.128807 -0.00686612 0.0575372 -0.334585 0.000404615
0.520794 0.135365 -0.00686192 0.0604493 -0.334783 0.000404678
0.520794 0.14199 -0.00685774 0.0633887 -0.334992 0.000404742
0.520794 0.148682 -0.00685368 0.0663555 -0.335213 0.000404807
0.520794 0.155441 -0.00684983 0.0693501 -0.335447 0.000404872
0.520794 0.162268 -0.0068463 0.0723727 -0.335694 0.000404938
0.520794 0.169165 -0.00684323 0.0754238 -0.335954 0.000405006
0.520794 0.176131 -0.00684078 0.0785037 -0.336228 0.000405077
0.520794 0.183167 -0.00683911 0.0816128 -0.336516 0.000405151
0.520794 0.190274 -0.00683845 0.0847518 -0.336818 0.000405228
0.520794 0.197454 -0.00683902 0.0879213 -0.337134 0.000405311
0.520794 0.204705 -0.00684107 0.0911219 -0.337466 0.0004054
0.520794 0.21203 -0.00684475 0.0943547 -0.337814 0.000405495
0.520794 0.219429 -0.00684963 0.0976209 -0.338178 0.000405594
0.520794 0.226902 -0.00685543 0.100922 -0.338557 0.000405695
0.520794 0.234451 -0.00686377 0.104258 -0.338954 0.000405803
0.520794 0.242076 -0.00687605 0.10763 -0.339368 0.000405928
0.520794 0.249778 -0.00689282 0.111039 -0.339801 0.000406073
0.520794 0.257558 -0.00691478 0.114488 -0.340252 0.000406241
0.520794 0.265417 -0.00694283 0.117977 -0.340723 0.000406437
0.520794 0.273355 -0.00697799 0.121511 -0.341215 0.000406665
0.520794 0.281372 -0.00702154 0.125093 -0.341728 0.000406932
0.520794 0.289471 -0.00707497 0.128725 -0.342264 0.000407244
0.520794 0.297652 -0.00714008 0.132413 -0.342823 0.000407609
0.520794 0.305915 -0.00721904 0.136161 -0.343408 0.000408037
0.520794 0.314262 -0.00731446 0.139976 -0.34402 0.000408536
0.520794 0.322693 -0.0074295 0.143865 -0.344661 0.000409122
0.520794 0.331209 -0.00756802 0.147836 -0.345333 0.000409807
0.520794 0.339811 -0.00773477 0.151901 -0.34604 0.000410611
0.520794 0.3485 -0.00793561 0.15607 -0.346783 0.000411555
0.520794 0.357276 -0.00817792 0.16036 -0.347567 0.000412663
0.520794 0.366142 -0.00847091 0.164788 -0.348397 0.000413969
0.520794 0.375096 -0.00882653 0.169377 -0.349279 0.00041551
0.520794 0.384141 -0.00925982 0.174154 -0.350221 0.000417333
0.520794 0.393278 -0.00979131 0.179153 -0.351229 0.000419498
0.520794 0.402507 -0.0104463 0.184416 -0.352321 0.000422078
0.520794 0.411828 -0.0112636 0.189999 -0.353501 0.000425172
0.520794 0.421244 -0.0122864 0.195967 -0.35481 0.000428901
0.520794 0.430755 -0.0135977 0.202423 -0.356234 0.000433433
0.520794 0.440362 -0.015273 0.209461 -0.357899 0.00043899
0.520794 0.450067 -0.0175162 0.217326 -0.359676 0.000445896
0.520794 0.459869 -0.0204936 0.226116 -0.361987 0.000454608
0.520794 0.46977 -0.0247242 0.236452 -0.364548 0.000465915
0.520794 0.479771 -0.0310166 0.248891 -0.367482 0.000481347
0.520794 0.489873 -0.043371 0.264664 -0.373978 0.000505314
0.520794 0.500076 -0.0699525 0.278009 -0.378537 0.000552102
0.520794 0.510383 -0.102287 0.275038 -0.389718 0.000637926
0.520794 0.520794 -0.127983 0.265112 -0.384069 0.0007612
0.526258 0 -0.00931764 0 -0.332897 0.000552986
0.526258 0.00531322 -0.00933575 0.0024071 -0.332902 0.000552901
0.526258 0.0106801 -0.00934144 0.00483172 -0.332912 0.000552875
0.526258 0.0161011 -0.00934806 0.00727798 -0.332929 0.000552883
0.526258 0.0215769 -0.00935069 0.00974822 -0.332953 0.00055291
0.526258 0.027108 -0.00935268 0.0122424 -0.332984 0.00055295
0.526258 0.0326949 -0.00935322 0.0147617 -0.333022 0.000552998
0.526258 0.0383382 -0.00935314 0.0173057 -0.333067 0.000553052
0.526258 0.0440385 -0.00935232 0.019875 -0.333121 0.000553111
0.526258 0.0497964 -0.00935097 0.0224694 -0.333183 0.000553174
0.526258 0.0556124 -0.00934909 0.0250893 -0.333253 0.00055324
0.526258 0.0614871 -0.00934674 0.0277347 -0.333331 0.000553309
0.526258 0.0674211 -0.00934393 0.0304058 -0.333418 0.00055338
0.526258 0.073415 -0.00934068 0.0331027 -0.333514 0.000553452
0.526258 0.0794694 -0.00933701 0.0358256 -0.33362 0.000553525
0.526258 0.085585 -0.00933293 0.0385744 -0.333735 0.000553598
0.526258 0.0917623 -0.00932846 0.0413495 -0.33386 0.000553673
0.526258 0.098002 -0.00932363 0.0441508 -0.333995 0.000553747
0.526258 0.104305 -0.00931846 0.0469787 -0.33414 0.000553821
0.526258 0.110671 -0.00931298 0.0498331 -0.334296 0.000553896
0.526258 0.117102 -0.00930725 0.0527144 -0.334463 0.000553969
0.526258 0.123597 -0.00930132 0.0556225 -0.334641 0.000554043
0.526258 0.130158 -0.00929524 0.0585578 -0.334831 0.000554117
0.526258 0.136785 -0.0092891 0.0615204 -0.335032 0.00055419
0.526258 0.14348 -0.00928299 0.0645105 -0.335246 0.000554263
0.526258 0.150242 -0.00927702 0.0675284 -0.335472 0.000554338
0.526258 0.157072 -0.00927132 0.0705743 -0.335711 0.000554413
0.526258 0.163971 -0.00926604 0.0736486 -0.335963 0.000554489
0.526258 0.170939 -0.00926135 0.0767516 -0.336228 0.000554568
0.526258 0.177979 -0.00925745 0.0798837 -0.336507 0.000554651
0.526258 0.185089 -0.0092546 0.0830453 -0.336801 0.000554737
0.526258 0.192271 -0.00925305 0.086237 -0.337109 0.000554829
0.526258 0.199525 -0.00925311 0.0894593 -0.337433 0.000554928
0.526258 0.206853 -0.00925513 0.0927131 -0.337772 0.000555035
0.526258 0.214254 -0.0092593 0.0959991 -0.338126 0.00055515
0.526258 0.221731 -0.0092654 0.0993185 -0.338498 0.000555273
0.526258 0.229283 -0.00927317 0.102673 -0.338886 0.000555399
0.526258 0.236911 -0.0092839 0.106063 -0.339291 0.000555534
0.526258 0.244616 -0.00929938 0.10949 -0.339714 0.000555691
0.526258 0.252399 -0.00932067 0.112953 -0.340156 0.000555874
0.526258 0.26026 -0.00934874 0.116457 -0.340617 0.00055609
0.526258 0.268201 -0.00938472 0.120002 -0.341099 0.000556343
0.526258 0.276222 -0.00943001 0.123591 -0.341602 0.000556641
0.526258 0.284324 -0.00948626 0.127228 -0.342127 0.000556992
0.526258 0.292508 -0.00955546 0.130916 -0.342675 0.000557405
0.526258 0.300775 -0.00964 0.134659 -0.343248 0.000557891
0.526258 0.309124 -0.00974272 0.138464 -0.343848 0.000558462
0.526258 0.317559 -0.00986706 0.142335 -0.344475 0.000559134
0.526258 0.326078 -0.0100172 0.146279 -0.345133 0.000559923
0.526258 0.334683 -0.0101983 0.150307 -0.345824 0.000560851
0.526258 0.343376 -0.0104167 0.154427 -0.34655 0.000561941
0.526258 0.352156 -0.01068 0.158652 -0.347316 0.000563226
0.526258 0.361024 -0.0109983 0.162997 -0.348126 0.000564739
0.526258 0.369983 -0.0113837 0.167479 -0.348984 0.000566524
0.526258 0.379031 -0.0118524 0.172122 -0.349898 0.000568636
0.526258 0.388171 -0.0124244 0.176952 -0.350875 0.00057114
0.526258 0.397404 -0.0131278 0.182002 -0.351926 0.00057412
0.526258 0.406729 -0.0139965 0.187313 -0.353067 0.000577679
0.526258 0.416149 -0.0150841 0.192941 -0.354306 0.000581953
0.526258 0.425663 -0.0164512 0.198943 -0.355685 0.000587117
0.526258 0.435274 -0.018208 0.205428 -0.357196 0.000593406
0.526258 0.444982 -0.0204884 0.212463 -0.358954 0.000601141
0.526258 0.454788 -0.0235114 0.220279 -0.360905 0.000610781
0.526258 0.464693 -0.027751 0.228979 -0.363243 0.000623038
0.526258 0.474698 -0.033517 0.23887 -0.36617 0.000639092
0.526258 0.484804 -0.0437672 0.250692 -0.369323 0.000661746
0.526258 0.495012 -0.0609422 0.261276 -0.375039 0.000698133
0.526258 0.505323 -0.086003 0.265837 -0.378863 0.000762964
0.526258 0.515738 -0.111007 0.257797 -0.385182 0.000863912
0.526258 0.526258 -0.127984 0.246392 -0.381729 0.00099729
0.531832 0 -0.0118536 0 -0.333092 0.000716125
0.531832 0.0053695 -0.0118597 0.00243255 -0.3331 0.000716054
0.531832 0.0107932 -0.0118645 0.00488641 -0.333109 0.000716034
0.531832 0.0162717 -0.0118686 0.00736293 -0.333126 0.000716046
0.531832 0.0218055 -0.0118708 0.00986384 -0.333151 0.000716078
0.531832 0.0273951 -0.011872 0.0123888 -0.333182 0.000716126
0.531832 0.0330412 -0.0118721 0.014939 -0.333221 0.000716184
0.531832 0.0387443 -0.0118714 0.0175141 -0.333268 0.00071625
0.531832 0.044505 -0.0118699 0.0201146 -0.333323 0.000716323
0.531832 0.0503238 -0.0118677 0.0227405 -0.333385 0.000716401
0.531832 0.0562014 -0.011865 0.0253921 -0.333457 0.000716483
0.531832 0.0621383 -0.0118616 0.0280694 -0.333537 0.000716569
0.531832 0.0681351 -0.0118576 0.0307726 -0.333626 0.000716657
0.531832 0.0741925 -0.0118531 0.0335018 -0.333724 0.000716748
0.531832 0.0803111 -0.011848 0.0362571 -0.333832 0.00071684
0.531832 0.0864914 -0.0118425 0.0390386 -0.333949 0.000716933
0.531832 0.0927342 -0.0118364 0.0418465 -0.334077 0.000717027
0.531832 0.0990399 -0.0118298 0.0446809 -0.334214 0.000717122
0.531832 0.105409 -0.0118229 0.0475419 -0.334363 0.000717216
0.531832 0.111843 -0.0118155 0.0504296 -0.334522 0.00071731
0.531832 0.118342 -0.0118078 0.0533443 -0.334692 0.000717405
0.531832 0.124906 -0.0117998 0.0562861 -0.334874 0.000717499
0.531832 0.131537 -0.0117917 0.0592551 -0.335067 0.000717593
0.531832 0.138234 -0.0117835 0.0622516 -0.335273 0.000717686
0.531832 0.144999 -0.0117753 0.0652757 -0.335491 0.000717781
0.531832 0.151833 -0.0117672 0.0683276 -0.335721 0.000717876
0.531832 0.158735 -0.0117595 0.0714077 -0.335965 0.000717972
0.531832 0.165707 -0.0117523 0.0745162 -0.336222 0.000718071
0.531832 0.17275 -0.0117459 0.0776535 -0.336493 0.000718173
0.531832 0.179864 -0.0117405 0.0808199 -0.336778 0.000718279
0.531832 0.187049 -0.0117363 0.0840159 -0.337078 0.00071839
0.531832 0.194307 -0.0117338 0.087242 -0.337392 0.000718509
0.531832 0.201638 -0.0117333 0.0904988 -0.337722 0.000718636
0.531832 0.209043 -0.0117351 0.0937869 -0.338068 0.000718774
0.531832 0.216524 -0.0117398 0.0971072 -0.33843 0.000718924
0.531832 0.224079 -0.0117471 0.100461 -0.338809 0.000719085
0.531832 0.231711 -0.011757 0.103849 -0.339205 0.000719252
0.531832 0.23942 -0.0117705 0.107274 -0.339619 0.00071943
0.531832 0.247207 -0.0117896 0.110734 -0.340051 0.000719633
0.531832 0.255072 -0.0118159 0.114233 -0.340502 0.000719871
0.531832 0.263017 -0.0118507 0.11777 -0.340973 0.000720151
0.531832 0.271042 -0.0118955 0.12135 -0.341465 0.00072048
0.531832 0.279148 -0.0119519 0.124973 -0.341979 0.000720868
0.531832 0.287336 -0.0120221 0.128645 -0.342515 0.000721325
0.531832 0.295606 -0.0121086 0.132367 -0.343076 0.000721862
0.531832 0.30396 -0.0122145 0.136145 -0.343662 0.000722495
0.531832 0.312398 -0.0123434 0.139983 -0.344276 0.000723239
0.531832 0.320922 -0.0124996 0.143888 -0.344918 0.000724113
0.531832 0.329532 -0.0126885 0.147866 -0.345593 0.000725142
0.531832 0.338228 -0.0129166 0.151926 -0.346301 0.000726351
0.531832 0.347012 -0.013192 0.156079 -0.347046 0.000727775
0.531832 0.355885 -0.0135246 0.160336 -0.347832 0.000729451
0.531832 0.364848 -0.0139272 0.164712 -0.348664 0.000731426
0.531832 0.373901 -0.0144156 0.169225 -0.349547 0.00073376
0.531832 0.383046 -0.0150104 0.173896 -0.350489 0.000736521
0.531832 0.392282 -0.0157379 0.17875 -0.351498 0.000739797
0.531832 0.401613 -0.0166339 0.18382 -0.352583 0.000743698
0.531832 0.411037 -0.0177445 0.189144 -0.353764 0.000748361
0.531832 0.420556 -0.0191355 0.194772 -0.35505 0.000753965
0.531832 0.430172 -0.0208961 0.200758 -0.356478 0.000760742
0.531832 0.439884 -0.0231562 0.207185 -0.358066 0.000769004
0.531832 0.449695 -0.0261173 0.214134 -0.359853 0.000779184
0.531832 0.459605 -0.0300663 0.221698 -0.361995 0.0007919
0.531832 0.469615 -0.0355403 0.230023 -0.364269 0.000808137
0.531832 0.479725 -0.0436137 0.239113 -0.367517 0.000829708
0.531832 0.489938 -0.0564307 0.248055 -0.371007 0.000860707
0.531832 0.500254 -0.0745769 0.253183 -0.375762 0.00091028
0.531832 0.510674 -0.0957086 0.251492 -0.37867 0.000990486
0.531832 0.5212 -0.114456 0.241602 -0.381646 0.00110286
0.531832 0.531832 -0.127025 0.229648 -0.380469 0.00124437
0.537518 0 -0.0144256 0 -0.333313 0.000892423
0.537518 0.00542691 -0.0144307 0.0024525 -0.333313 0.00089237
0.537518 0.0109086 -0.0144333 0.00493013 -0.333326 0.000892361
0.537518 0.0164456 -0.0144362 0.00742994 -0.333342 0.000892384
0.537518 0.0220386 -0.0144375 0.00995498 -0.333367 0.000892428
0.537518 0.027688 -0.0144379 0.0125041 -0.333399 0.000892489
0.537518 0.0333945 -0.0144373 0.0150786 -0.333439 0.000892563
0.537518 0.0391585 -0.0144358 0.0176781 -0.333486 0.000892648
0.537518 0.0449808 -0.0144335 0.0203032 -0.333542 0.00089274
0.537518 0.0508618 -0.0144304 0.0229538 -0.333606 0.00089284
0.537518 0.0568022 -0.0144265 0.0256302 -0.333679 0.000892945
0.537518 0.0628026 -0.0144219 0.0283325 -0.333761 0.000893055
0.537518 0.0688636 -0.0144166 0.0310607 -0.333852 0.000893168
0.537518 0.0749858 -0.0144107 0.0338151 -0.333952 0.000893285
0.537518 0.0811698 -0.014404 0.0365957 -0.334062 0.000893403
0.537518 0.0874162 -0.0143967 0.0394026 -0.334182 0.000893524
0.537518 0.0937257 -0.0143888 0.042236 -0.334312 0.000893645
0.537518 0.100099 -0.0143803 0.0450959 -0.334452 0.000893767
0.537518 0.106536 -0.0143713 0.0479826 -0.334604 0.00089389
0.537518 0.113039 -0.0143618 0.0508961 -0.334766 0.000894013
0.537518 0.119607 -0.0143518 0.0538365 -0.33494 0.000894135
0.537518 0.126242 -0.0143416 0.0568041 -0.335125 0.000894258
0.537518 0.132943 -0.0143311 0.0597989 -0.335323 0.000894381
0.537518 0.139712 -0.0143205 0.0628212 -0.335533 0.000894504
0.537518 0.14655 -0.0143099 0.0658711 -0.335755 0.000894627
0.537518 0.153456 -0.0142996 0.0689489 -0.33599 0.000894752
0.537518 0.160432 -0.0142896 0.0720547 -0.336239 0.000894879
0.537518 0.167479 -0.0142802 0.0751889 -0.336502 0.000895008
0.537518 0.174597 -0.0142718 0.0783518 -0.336778 0.000895141
0.537518 0.181787 -0.0142645 0.0815438 -0.337069 0.00089528
0.537518 0.189049 -0.0142588 0.0847652 -0.337375 0.000895426
0.537518 0.196384 -0.014255 0.0880166 -0.337696 0.00089558
0.537518 0.203794 -0.0142537 0.0912985 -0.338033 0.000895746
0.537518 0.211278 -0.0142553 0.0946115 -0.338386 0.000895925
0.537518 0.218839 -0.0142601 0.0979564 -0.338756 0.000896118
0.537518 0.226475 -0.0142685 0.101334 -0.339142 0.000896327
0.537518 0.234188 -0.0142805 0.104747 -0.339547 0.000896546
0.537518 0.24198 -0.0142968 0.108195 -0.33997 0.000896779