TITLE = SQUARE_CYLINDER_RE_22000
VARIABLES = "X" ,  "Y" , "fx" , "fy"   
ZONE   N=30576,E=60444,F=FEPOINT,ET=TRIANGLE
0.5 0 3.0097e-06 3.40263e-06
0.5 0.00504812 -1.09947e-05 -7.35408e-06
0.5 0.0101472 -3.91421e-06 -1.68803e-05
0.5 0.0152978 6.92316e-06 -2.67028e-05
0.5 0.0205003 5.48645e-06 -4.90264e-05
0.5 0.0257554 1.73733e-05 -7.77573e-05
0.5 0.0310636 2.79867e-05 -0.000117305
0.5 0.0364253 4.28703e-05 -0.000166995
0.5 0.0418412 5.70058e-05 -0.000223205
0.5 0.0473118 6.50461e-05 -0.000282366
0.5 0.0528376 6.5641e-05 -0.000343982
0.5 0.0584191 6.23067e-05 -0.000402608
0.5 0.0640571 4.9902e-05 -0.000450812
0.5 0.0697519 2.91266e-05 -0.000489193
0.5 0.0755043 9.04892e-06 -0.000516625
0.5 0.0813147 -4.59344e-06 -0.00052793
0.5 0.0871838 -1.57852e-05 -0.000519445
0.5 0.0931121 -2.86906e-05 -0.000496678
0.5 0.0991003 -3.84617e-05 -0.00046834
0.5 0.105149 -4.20814e-05 -0.000438445
0.5 0.111259 -4.37767e-05 -0.000410983
0.5 0.11743 -4.63705e-05 -0.000394342
0.5 0.123664 -4.6168e-05 -0.000396849
0.5 0.129961 -4.04715e-05 -0.000422487
0.5 0.136321 -2.84523e-05 -0.000471811
0.5 0.142745 -1.05745e-05 -0.000537649
0.5 0.149235 9.28406e-06 -0.000609222
0.5 0.155789 2.73906e-05 -0.000678976
0.5 0.16241 4.17069e-05 -0.000742053
0.5 0.169098 5.05843e-05 -0.000795854
0.5 0.175854 5.44274e-05 -0.000841385
0.5 0.182677 5.36599e-05 -0.000880825
0.5 0.18957 4.75642e-05 -0.000916405
0.5 0.196532 3.92792e-05 -0.000946396
0.5 0.203564 3.16131e-05 -0.000964437
0.5 0.210667 1.99146e-05 -0.000972424
0.5 0.217842 4.29889e-06 -0.000978923
0.5 0.22509 -8.55004e-06 -0.000983384
0.5 0.232411 -1.81272e-05 -0.000981901
0.5 0.239805 -3.20736e-05 -0.000980224
0.5 0.247274 -4.89038e-05 -0.000989517
0.5 0.254819 -5.87826e-05 -0.00101156
0.5 0.26244 -6.18834e-05 -0.00104851
0.5 0.270138 -5.94341e-05 -0.00110458
0.5 0.277913 -5.07925e-05 -0.00117791
0.5 0.285767 -3.45478e-05 -0.00125933
0.5 0.293701 -1.33003e-05 -0.00133098
0.5 0.301714 7.91019e-06 -0.00137276
0.5 0.309808 2.37859e-05 -0.00136696
0.5 0.317984 2.89671e-05 -0.00130492
0.5 0.326243 2.04728e-05 -0.00119529
0.5 0.334585 -2.48609e-06 -0.00106068
0.5 0.343011 -3.72672e-05 -0.000922719
0.5 0.351522 -7.5456e-05 -0.000798065
0.5 0.360119 -9.79887e-05 -0.000698645
0.5 0.368803 -8.69092e-05 -0.000613574
0.5 0.377575 -4.39254e-05 -0.000503028
0.5 0.386435 1.90986e-05 -0.000291855
0.5 0.395385 8.26048e-05 0.00013583
0.5 0.404425 9.78908e-05 0.000871647
0.5 0.413556 1.80145e-05 0.00187273
0.5 0.42278 -0.000177865 0.00301874
0.5 0.432096 -0.000404993 0.00409374
0.5 0.441507 -0.000566054 0.00531998
0.5 0.451013 -0.00037402 0.00691576
0.5 0.460614 0.00135345 0.0112928
0.5 0.470313 0.00178196 0.0217921
0.5 0.480109 0.0075599 0.0336716
0.5 0.490005 0.0135499 0.0449537
0.5 0.5 0.00613172 0.0637456
0.505044 0 0.000943773 -6.42547e-07
0.505044 0.00509904 0.00499653 -0.0104466
0.505044 0.0102496 0.00373089 -0.0191016
0.505044 0.0154521 0.00439252 -0.0290567
0.505044 0.0207071 0.00375958 -0.0375077
0.505044 0.0260153 0.00366962 -0.0451373
0.505044 0.031377 0.00309829 -0.0512897
0.505044 0.0367928 0.00275721 -0.056002
0.505044 0.0422633 0.00218169 -0.0591548
0.505044 0.047789 0.00335282 -0.0626759
0.505044 0.0533706 0.00291359 -0.0658388
0.505044 0.0590085 0.00284232 -0.0694506
0.505044 0.0647033 0.00467797 -0.0740039
0.505044 0.0704556 0.00586368 -0.0828277
0.505044 0.0762659 0.0065632 -0.0933441
0.505044 0.082135 0.00699056 -0.106297
0.505044 0.0880633 0.00725394 -0.120321
0.505044 0.0940514 0.00953734 -0.138797
0.505044 0.1001 0.00869773 -0.158793
0.505044 0.10621 0.00843261 -0.177872
0.505044 0.112381 0.00821122 -0.196415
0.505044 0.118615 0.00753331 -0.213179
0.505044 0.124911 0.00685481 -0.228056
0.505044 0.131272 0.0061791 -0.240508
0.505044 0.137696 0.00531435 -0.250604
0.505044 0.144185 0.00418587 -0.257869
0.505044 0.15074 0.00338562 -0.262966
0.505044 0.157361 0.00309654 -0.266906
0.505044 0.164049 0.00292795 -0.270444
0.505044 0.170804 0.00283992 -0.273851
0.505044 0.177628 0.00328143 -0.277877
0.505044 0.18452 0.00360434 -0.282738
0.505044 0.191482 0.00452632 -0.289057
0.505044 0.198514 0.00383777 -0.2957
0.505044 0.205618 0.00341568 -0.301131
0.505044 0.212793 0.00507786 -0.308658
0.505044 0.22004 0.00587998 -0.319558
0.505044 0.227361 0.00472204 -0.329455
0.505044 0.234755 0.00583036 -0.340824
0.505044 0.242224 0.00729246 -0.352525
0.505044 0.249769 0.0074236 -0.369223
0.505044 0.25739 0.00723614 -0.383733
0.505044 0.265087 0.0077717 -0.39881
0.505044 0.272863 0.00699273 -0.412392
0.505044 0.280717 0.00653614 -0.423247
0.505044 0.28865 0.00539604 -0.431345
0.505044 0.296663 0.00419537 -0.435442
0.505044 0.304758 0.00335989 -0.437184
0.505044 0.312933 0.00283714 -0.437038
0.505044 0.321192 0.00296489 -0.437886
0.505044 0.329534 0.00424182 -0.44196
0.505044 0.33796 0.00567978 -0.450695
0.505044 0.346471 0.00660362 -0.463956
0.505044 0.355068 0.00693736 -0.478294
0.505044 0.363752 0.00514529 -0.489456
0.505044 0.372524 0.00100529 -0.488444
0.505044 0.381384 -0.00138831 -0.474692
0.505044 0.390333 -0.00535472 -0.451492
0.505044 0.399373 -0.00882905 -0.418237
0.505044 0.408505 -0.00769339 -0.385217
0.505044 0.417728 -0.00234547 -0.370985
0.505044 0.427044 0.00469727 -0.377886
0.505044 0.436455 0.0119565 -0.410654
0.505044 0.445961 -2.60515e-05 -0.427108
0.505044 0.455562 -0.0215085 -0.373489
0.505044 0.465261 -0.106129 -0.149352
0.505044 0.475057 -0.112288 0.198614
0.505044 0.484953 -0.232799 0.695412
0.505044 0.494948 0.418832 -0.0113342
0.505044 0.505044 2.04263 -0.587169
0.51019 0 0.0129862 -1.90516e-05
0.51019 0.005151 0.0116236 -0.00501895
0.51019 0.010354 0.0123204 -0.0100449
0.51019 0.0156095 0.01042 -0.0142182
0.51019 0.0209181 0.00785565 -0.0162726
0.51019 0.0262803 0.00565998 -0.0167076
0.51019 0.0316966 0.0030346 -0.0159953
0.51019 0.0371676 0.00069826 -0.0140824
0.51019 0.0426939 -0.000997651 -0.0112101
0.51019 0.0482759 0.000453019 -0.00934029
0.51019 0.0539143 -8.94551e-05 -0.00711091
0.51019 0.0596097 0.00188687 -0.00984924
0.51019 0.0653625 0.00638994 -0.0125528
0.51019 0.0711734 0.0103616 -0.0190873
0.51019 0.077043 0.0139199 -0.0281105
0.51019 0.0829718 0.0165378 -0.0396334
0.51019 0.0889605 0.0202345 -0.0534345
0.51019 0.0950097 0.0234467 -0.0654791
0.51019 0.10112 0.0227306 -0.0791453
0.51019 0.107292 0.020942 -0.0901528
0.51019 0.113526 0.0185721 -0.0992243
0.51019 0.119823 0.0150872 -0.105195
0.51019 0.126184 0.0115008 -0.108376
0.51019 0.132609 0.00817909 -0.10951
0.51019 0.139099 0.00501341 -0.109339
0.51019 0.145654 0.00278694 -0.109627
0.51019 0.152276 0.00128441 -0.110446
0.51019 0.158964 0.000545123 -0.111097
0.51019 0.16572 0.000594875 -0.112486
0.51019 0.172544 0.00101961 -0.114918
0.51019 0.179437 0.00183714 -0.117989
0.51019 0.1864 0.00291381 -0.121227
0.51019 0.193433 0.00441591 -0.125646
0.51019 0.200537 0.00406415 -0.131982
0.51019 0.207712 0.00542136 -0.141102
0.51019 0.214961 0.00806229 -0.14865
0.51019 0.222282 0.00927581 -0.158097
0.51019 0.229677 0.00858137 -0.169276
0.51019 0.237147 0.0100534 -0.180596
0.51019 0.244692 0.0128211 -0.188655
0.51019 0.252314 0.0117459 -0.199706
0.51019 0.260012 0.0106827 -0.208201
0.51019 0.267788 0.00896659 -0.214208
0.51019 0.275643 0.00629992 -0.21977
0.51019 0.283577 0.00339587 -0.223248
0.51019 0.291591 0.000709299 -0.227104
0.51019 0.299686 -0.00117915 -0.233052
0.51019 0.307863 -0.00174138 -0.240651
0.51019 0.316122 7.70301e-05 -0.252396
0.51019 0.324464 0.0028688 -0.268114
0.51019 0.332891 0.00677469 -0.285657
0.51019 0.341403 0.00974247 -0.303299
0.51019 0.350001 0.0105878 -0.321833
0.51019 0.358686 0.00642995 -0.335926
0.51019 0.367458 -0.00369041 -0.343978
0.51019 0.376319 -0.0155222 -0.345234
0.51019 0.38527 -0.0231647 -0.341701
0.51019 0.39431 -0.0293215 -0.341509
0.51019 0.403442 -0.0277775 -0.350625
0.51019 0.412667 -0.0161628 -0.369028
0.51019 0.421984 -0.00122299 -0.397353
0.51019 0.431395 0.00760972 -0.424125
0.51019 0.440902 -0.010904 -0.434939
0.51019 0.450504 -0.0737166 -0.409375
0.51019 0.460204 -0.173275 -0.368558
0.51019 0.470001 -0.270371 -0.34882
0.51019 0.479897 -0.187426 -0.500815
0.51019 0.489893 0.0997892 -0.895535
0.51019 0.499991 1.2661 -1.37825
0.51019 0.51019 1.54402 -0.669855
0.515439 0 0.0135628 -0.000108914
0.515439 0.005204 0.0132704 -0.00676627
0.515439 0.0104605 0.0126714 -0.0135291
0.515439 0.0157701 0.00913121 -0.01964
0.515439 0.0211334 0.00537231 -0.0252282
0.515439 0.0265507 0.00221556 -0.0303878
0.515439 0.0320228 -0.00101992 -0.0355609
0.515439 0.0375501 -0.00343949 -0.0410767
0.515439 0.0431332 -0.00468018 -0.0463391
0.515439 0.0487727 -0.00252991 -0.0528177
0.515439 0.0544691 -0.000567095 -0.0585627
0.515439 0.060223 0.00272801 -0.0668919
0.515439 0.066035 0.00845255 -0.0735971
0.515439 0.0719057 0.0138719 -0.0819678
0.515439 0.0778357 0.0184601 -0.0906676
0.515439 0.0838255 0.0213303 -0.0995358
0.515439 0.0898759 0.0230745 -0.107517
0.515439 0.0959873 0.0243914 -0.112879
0.515439 0.10216 0.0222867 -0.119238
0.515439 0.108396 0.018526 -0.123897
0.515439 0.114694 0.014085 -0.127288
0.515439 0.121056 0.00954015 -0.130177
0.515439 0.127482 0.00568567 -0.133043
0.515439 0.133973 0.00291414 -0.136464
0.515439 0.14053 0.00131122 -0.14116
0.515439 0.147153 0.000462425 -0.146703
0.515439 0.153843 -9.73781e-05 -0.153224
0.515439 0.1606 0.000214602 -0.160462
0.515439 0.167425 0.00120181 -0.168195
0.515439 0.17432 0.00227292 -0.176452
0.515439 0.181284 0.00337616 -0.185102
0.515439 0.188318 0.00466721 -0.193617
0.515439 0.195423 0.00665007 -0.201886
0.515439 0.2026 0.00755364 -0.210404
0.515439 0.20985 0.00835654 -0.218777
0.515439 0.217172 0.0105913 -0.225614
0.515439 0.224569 0.0119566 -0.233027
0.515439 0.23204 0.0106948 -0.240047
0.515439 0.239587 0.0109889 -0.247142
0.515439 0.24721 0.0125231 -0.250325
0.515439 0.25491 0.0105077 -0.256263
0.515439 0.262687 0.00823593 -0.261081
0.515439 0.270544 0.00618014 -0.266367
0.515439 0.278479 0.00332565 -0.271738
0.515439 0.286495 0.00209555 -0.278365
0.515439 0.294591 0.00216115 -0.287112
0.515439 0.302769 0.00287902 -0.297648
0.515439 0.31103 0.00584438 -0.309802
0.515439 0.319374 0.00977829 -0.322823
0.515439 0.327803 0.0127903 -0.335958
0.515439 0.336317 0.0148611 -0.348089
0.515439 0.344916 0.0146406 -0.357355
0.515439 0.353602 0.0101216 -0.36352
0.515439 0.362376 0.000266798 -0.367638
0.515439 0.371239 -0.0124023 -0.371608
0.515439 0.380191 -0.0233277 -0.375402
0.515439 0.389234 -0.0270759 -0.380469
0.515439 0.398368 -0.0264369 -0.389963
0.515439 0.407594 -0.0201548 -0.401209
0.515439 0.416913 -0.0120455 -0.406998
0.515439 0.426326 -0.010546 -0.405305
0.515439 0.435834 -0.0305871 -0.390904
0.515439 0.445438 -0.0747656 -0.377619
0.515439 0.45514 -0.141827 -0.377174
0.515439 0.464939 -0.166154 -0.45562
0.515439 0.474837 -0.116821 -0.580268
0.515439 0.484835 0.129014 -0.835548
0.515439 0.494934 0.63212 -1.01649
0.515439 0.505135 0.879685 -1.07266
0.515439 0.515439 0.844921 -0.659929
0.520794 0 0.0121341 0.000129538
0.520794 0.00525806 0.0103231 -0.0064835
0.520794 0.0105692 0.00955497 -0.0139329
0.520794 0.015934 0.00665035 -0.0209889
0.520794 0.0213529 0.00375479 -0.0274709
0.520794 0.0268266 0.00132487 -0.0334427
0.520794 0.0323555 -0.000891729 -0.0392194
0.520794 0.0379402 -0.00239761 -0.0450019
0.520794 0.0435813 -0.00331335 -0.0500136
0.520794 0.0492794 -0.00202286 -0.055885
0.520794 0.055035 -0.000528494 -0.0601187
0.520794 0.0608487 0.00109914 -0.0660059
0.520794 0.0667211 0.00431629 -0.0693903
0.520794 0.0726528 0.00734055 -0.0734609
0.520794 0.0786444 0.00951685 -0.0775867
0.520794 0.0846965 0.00988594 -0.0813429
0.520794 0.0908097 0.00923306 -0.0856157
0.520794 0.0969846 0.00881276 -0.0887375
0.520794 0.103222 0.00608992 -0.0937474
0.520794 0.109522 0.00236132 -0.0983678
0.520794 0.115886 -0.000622053 -0.103327
0.520794 0.122314 -0.00266288 -0.108877
0.520794 0.128807 -0.00366478 -0.115114
0.520794 0.135365 -0.00334126 -0.121806
0.520794 0.14199 -0.00230297 -0.129396
0.520794 0.148682 -0.00123745 -0.13725
0.520794 0.155441 -0.000172584 -0.145402
0.520794 0.162268 0.00111425 -0.153658
0.520794 0.169165 0.00248516 -0.161924
0.520794 0.176131 0.0035946 -0.170328
0.520794 0.183167 0.00425813 -0.17871
0.520794 0.190274 0.00434031 -0.186305
0.520794 0.197454 0.0052015 -0.193401
0.520794 0.204705 0.00491065 -0.199932
0.520794 0.21203 0.00440842 -0.206351
0.520794 0.219429 0.00499721 -0.211311
0.520794 0.226902 0.0047443 -0.216669
0.520794 0.234451 0.00282591 -0.222016
0.520794 0.242076 0.0020706 -0.228012
0.520794 0.249778 0.00258268 -0.232186
0.520794 0.257558 0.000420564 -0.239292
0.520794 0.265417 -0.00121704 -0.246688
0.520794 0.273355 -0.00251579 -0.254463
0.520794 0.281372 -0.00294061 -0.263555
0.520794 0.289471 -0.00162651 -0.27337
0.520794 0.297652 0.000621743 -0.283879
0.520794 0.305915 0.00344889 -0.295514
0.520794 0.314262 0.00677605 -0.306853
0.520794 0.322693 0.00922275 -0.316764
0.520794 0.331209 0.00979985 -0.325632
0.520794 0.339811 0.00808583 -0.333529
0.520794 0.3485 0.00326425 -0.340337
0.520794 0.357276 -0.00456786 -0.347777
0.520794 0.366142 -0.0145473 -0.357393
0.520794 0.375096 -0.0239933 -0.370312
0.520794 0.384141 -0.0302048 -0.382611
0.520794 0.393278 -0.0295828 -0.392805
0.520794 0.402507 -0.0270639 -0.401607
0.520794 0.411828 -0.0252057 -0.407555
0.520794 0.421244 -0.0282856 -0.407315
0.520794 0.430755 -0.0432675 -0.405275
0.520794 0.440362 -0.0720593 -0.40797
0.520794 0.450067 -0.101872 -0.436608
0.520794 0.459869 -0.106306 -0.509428
0.520794 0.46977 -0.0211941 -0.629771
0.520794 0.479771 0.126985 -0.801951
0.520794 0.489873 0.460211 -0.964751
0.520794 0.500076 0.763576 -0.71721
0.520794 0.510383 0.574719 -0.68267
0.520794 0.520794 0.492903 -0.660326
0.526258 0 0.00648384 -6.75495e-05
0.526258 0.00531322 0.00529336 -0.0062968
0.526258 0.0106801 0.00443504 -0.0135936
0.526258 0.0161011 0.00287819 -0.0203341
0.526258 0.0215769 0.00107691 -0.0263749
0.526258 0.027108 -0.000421934 -0.0317699
0.526258 0.0326949 -0.00170381 -0.0366038
0.526258 0.0383382 -0.00237534 -0.0412847
0.526258 0.0440385 -0.00291721 -0.0450775
0.526258 0.0497964 -0.00232239 -0.0496765
0.526258 0.0556124 -0.001481 -0.0530134
0.526258 0.0614871 -0.00128824 -0.0571663
0.526258 0.0674211 2.66316e-05 -0.059529
0.526258 0.073415 0.00100125 -0.0626286
0.526258 0.0794694 0.00110674 -0.0661182
0.526258 0.085585 0.000235226 -0.06951
0.526258 0.0917623 -0.00126842 -0.0734857
0.526258 0.098002 -0.00228652 -0.0773035
0.526258 0.104305 -0.00441316 -0.0829022
0.526258 0.110671 -0.00617028 -0.089233
0.526258 0.117102 -0.00667535 -0.0961167
0.526258 0.123597 -0.00610913 -0.102985
0.526258 0.130158 -0.00452784 -0.110207
0.526258 0.136785 -0.00227377 -0.11747
0.526258 0.14348 -0.000153177 -0.124802
0.526258 0.150242 0.0017302 -0.13233
0.526258 0.157072 0.00330639 -0.140031
0.526258 0.163971 0.004751 -0.147794
0.526258 0.170939 0.00573788 -0.155483
0.526258 0.177979 0.00609596 -0.162571
0.526258 0.185089 0.006039 -0.169486
0.526258 0.192271 0.0055548 -0.176325
0.526258 0.199525 0.00543433 -0.183141
0.526258 0.206853 0.00445786 -0.189408
0.526258 0.214254 0.00339424 -0.195545
0.526258 0.221731 0.00314228 -0.200515
0.526258 0.229283 0.00251351 -0.20637
0.526258 0.236911 0.00105244 -0.212506
0.526258 0.244616 0.000466702 -0.219179
0.526258 0.252399 0.000895761 -0.224555
0.526258 0.26026 -0.000158987 -0.232304
0.526258 0.268201 -0.000678268 -0.240757
0.526258 0.276222 -0.000273477 -0.249947
0.526258 0.284324 0.00130323 -0.259906
0.526258 0.292508 0.0038822 -0.270403
0.526258 0.300775 0.00691539 -0.281254
0.526258 0.309124 0.00939724 -0.291771
0.526258 0.317559 0.0108531 -0.301356
0.526258 0.326078 0.0110429 -0.309889
0.526258 0.334683 0.00944247 -0.317591
0.526258 0.343376 0.00596808 -0.325107
0.526258 0.352156 0.000897992 -0.334291
0.526258 0.361024 -0.0059619 -0.3457
0.526258 0.369983 -0.0129165 -0.358503
0.526258 0.379031 -0.0184447 -0.373124
0.526258 0.388171 -0.0210538 -0.386732
0.526258 0.397404 -0.0189305 -0.397471
0.526258 0.406729 -0.0172287 -0.405766
0.526258 0.416149 -0.0186431 -0.41171
0.526258 0.425663 -0.0256759 -0.415252
0.526258 0.435274 -0.0383032 -0.423626
0.526258 0.444982 -0.0494169 -0.447095
0.526258 0.454788 -0.0352324 -0.497585
0.526258 0.464693 0.0194306 -0.580596
0.526258 0.474698 0.150375 -0.689755
0.526258 0.484804 0.354587 -0.775833
0.526258 0.495012 0.497835 -0.804033
0.526258 0.505323 0.656244 -0.579815
0.526258 0.515738 0.382875 -0.532307
0.526258 0.526258 0.346521 -0.64531
0.531832 0 0.00646705 -0.00043143
0.531832 0.0053695 0.00484133 -0.0064249
0.531832 0.0107932 0.00413232 -0.0135504
0.531832 0.0162717 0.00351515 -0.020222
0.531832 0.0218055 0.00246537 -0.0261531
0.531832 0.0273951 0.00160195 -0.0313779
0.531832 0.0330412 0.000951747 -0.0359852
0.531832 0.0387443 0.000669299 -0.0402787
0.531832 0.044505 0.0004654 -0.043715
0.531832 0.0503238 0.000771524 -0.0477937
0.531832 0.0562014 0.0012166 -0.050801
0.531832 0.0621383 0.00105221 -0.0547794
0.531832 0.0681351 0.00159557 -0.0574897
0.531832 0.0741925 0.00167072 -0.0604571
0.531832 0.0803111 0.00117952 -0.0637225
0.531832 0.0864914 0.000272453 -0.067247
0.531832 0.0927342 -0.000943347 -0.0714304
0.531832 0.0990399 -0.00127172 -0.075517
0.531832 0.105409 -0.00177322 -0.0818729
0.531832 0.111843 -0.00219724 -0.0887872
0.531832 0.118342 -0.00170051 -0.0962637
0.531832 0.124906 -0.000418708 -0.10358
0.531832 0.131537 0.00147558 -0.110769
0.531832 0.138234 0.00362722 -0.117746
0.531832 0.144999 0.00565874 -0.124818
0.531832 0.151833 0.00729814 -0.132022
0.531832 0.158735 0.00839158 -0.13888
0.531832 0.165707 0.00937109 -0.145657
0.531832 0.17275 0.00948286 -0.152711
0.531832 0.179864 0.00919681 -0.159752
0.531832 0.187049 0.0087566 -0.166659
0.531832 0.194307 0.00793996 -0.173134
0.531832 0.201638 0.00732748 -0.179394
0.531832 0.209043 0.00626304 -0.18582
0.531832 0.216524 0.00517271 -0.192066
0.531832 0.224079 0.00505087 -0.197575
0.531832 0.231711 0.00468459 -0.203896
0.531832 0.23942 0.00378302 -0.210383
0.531832 0.247207 0.00350521 -0.217497
0.531832 0.255072 0.00427948 -0.223969
0.531832 0.263017 0.0042887 -0.232334
0.531832 0.271042 0.00480657 -0.241455
0.531832 0.279148 0.00619609 -0.251016
0.531832 0.287336 0.00841135 -0.260831
0.531832 0.295606 0.0109613 -0.270668
0.531832 0.30396 0.0130502 -0.280195
0.531832 0.312398 0.014233 -0.289355
0.531832 0.320922 0.014293 -0.298032
0.531832 0.329532 0.0130623 -0.306231
0.531832 0.338228 0.0106412 -0.314762
0.531832 0.347012 0.0072132 -0.324345
0.531832 0.355885 0.00248492 -0.334906
0.531832 0.364848 -0.00307826 -0.347879
0.531832 0.373901 -0.00775456 -0.3627
0.531832 0.383046 -0.0102353 -0.379164
0.531832 0.392282 -0.0105541 -0.394941
0.531832 0.401613 -0.0082167 -0.408609
0.531832 0.411037 -0.0074457 -0.421166
0.531832 0.420556 -0.00978934 -0.434333
0.531832 0.430172 -0.0140174 -0.451139
0.531832 0.439884 -0.0135931 -0.478313
0.531832 0.449695 0.000861593 -0.523672
0.531832 0.459605 0.0538241 -0.587506
0.531832 0.469615 0.145692 -0.658122
0.531832 0.479725 0.276502 -0.726616
0.531832 0.489938 0.437351 -0.714286
0.531832 0.500254 0.468258 -0.677745
0.531832 0.510674 0.550542 -0.483005
0.531832 0.5212 0.324071 -0.439631
0.531832 0.531832 0.304834 -0.613643
0.537518 0 0.0101748 -0.000458012
0.537518 0.00542691 0.00834239 -0.00631287
0.537518 0.0109086 0.0074821 -0.0131486
0.537518 0.0164456 0.00732333 -0.0195717
0.537518 0.0220386 0.00657437 -0.025369
0.537518 0.027688 0.00605292 -0.0305795
0.537518 0.0333945 0.00566447 -0.0351231
0.537518 0.0391585 0.00550741 -0.0393866
0.537518 0.0449808 0.00545531 -0.0427939
0.537518 0.0508618 0.00568151 -0.0466343
0.537518 0.0568022 0.00619784 -0.0496852
0.537518 0.0628026 0.00598993 -0.0535376
0.537518 0.0688636 0.00611107 -0.0562912
0.537518 0.0749858 0.00614032 -0.0594222
0.537518 0.0811698 0.00597394 -0.0630784
0.537518 0.0874162 0.00553908 -0.0669975
0.537518 0.0937257 0.00492212 -0.0714656
0.537518 0.100099 0.00548308 -0.0757358
0.537518 0.106536 0.00600863 -0.0818438
0.537518 0.113039 0.00635406 -0.0887677
0.537518 0.119607 0.00716903 -0.0963282
0.537518 0.126242 0.00833052 -0.103809
0.537518 0.132943 0.00982344 -0.111087
0.537518 0.139712 0.0113727 -0.11789
0.537518 0.14655 0.0128858 -0.12455
0.537518 0.153456 0.0137445 -0.131329
0.537518 0.160432 0.0143425 -0.138307
0.537518 0.167479 0.0147869 -0.145288
0.537518 0.174597 0.0143913 -0.152297
0.537518 0.181787 0.0134946 -0.159127
0.537518 0.189049 0.012487 -0.165557
0.537518 0.196384 0.0114894 -0.171739
0.537518 0.203794 0.0110954 -0.17811
0.537518 0.211278 0.0101721 -0.184726
0.537518 0.218839 0.00935822 -0.191419
0.537518 0.226475 0.00945103 -0.197559
0.537518 0.234188 0.00934754 -0.204235
0.537518 0.24198 0.00896176 -0.211076
0.537518 0.24985 0.00925765 -0.218279
0.537518 0.257799 0.0105841 -0.225514
0.537518 0.265829 0.0112894 -0.234061
0.537518 0.27394 0.0124248 -0.243136
0.537518 0.282132 0.0141183 -0.252431
0.537518 0.290408 0.0161858 -0.261666
0.537518 0.298767 0.0180184 -0.27075
0.537518 0.30721 0.0191534 -0.279684
0.537518 0.315738 0.019331 -0.288478
0.537518 0.324353 0.018445 -0.297237
0.537518 0.333055 0.0166519 -0.305978
0.537518 0.341844 0.0140313 -0.314875
0.537518 0.350723 0.0106836 -0.324723
0.537518 0.35969 0.00700252 -0.336333
0.537518 0.368749 0.00373461 -0.350714
0.537518 0.377899 0.0014379 -0.366974
0.537518 0.387141 0.0013121 -0.384658
0.537518 0.396477 0.00226065 -0.401976
0.537518 0.405906 0.00478581 -0.418155
0.537518 0.415431 0.00595915 -0.434513
0.537518 0.425053 0.00698223 -0.453704
0.537518 0.434771 0.0120312 -0.478764
0.537518 0.444587 0.030226 -0.513331
0.537518 0.454503 0.0714163 -0.557766
0.537518 0.464519 0.141773 -0.608466
0.537518 0.474635 0.24722 -0.650681
0.537518 0.484854 0.342234 -0.672944
0.537518 0.495176 0.431003 -0.628604
0.537518 0.505603 0.398409 -0.584588
0.537518 0.516134 0.455175 -0.472582
0.537518 0.526772 0.328349 -0.432162
0.537518 0.537518 0.315254 -0.571134
0.543319 0 0.0153017 -0.000601246
0.543319 0.00548547 0.0133414 -0.00621022
0.543319 0.0110263 0.0123413 -0.0127653
0.543319 0.0166231 0.0124099 -0.0190147
0.543319 0.0222764 0.0118242 -0.024729
0.543319 0.0279868 0.0114155 -0.0299727
0.543319 0.0337548 0.0111237 -0.0345414
0.543319 0.0395811 0.0109662 -0.0388018
0.543319 0.0454662 0.0109164 -0.0422729
0.543319 0.0514107 0.0111562 -0.0460903
0.543319 0.0574152 0.0115855 -0.0491271
0.543319 0.0634804 0.0114163 -0.0528067
0.543319 0.0696068 0.0116363 -0.0558134
0.543319 0.075795 0.011937 -0.0591621
0.543319 0.0820457 0.0120874 -0.0628296
0.543319 0.0883596 0.012167 -0.0667154
0.543319 0.0947371 0.012212 -0.0713759
0.543319 0.101179 0.0134463 -0.076054
0.543319 0.107686 0.014573 -0.0823302
0.543319 0.114259 0.0152252 -0.0892905
0.543319 0.120898 0.0159434 -0.09667
0.543319 0.127604 0.0168002 -0.103934
0.543319 0.134378 0.0177258 -0.111119
0.543319 0.14122 0.018704 -0.118187
0.543319 0.148131 0.0196692 -0.125152
0.543319 0.155112 0.0200994 -0.132069
0.543319 0.162164 0.0201387 -0.138966
0.543319 0.169286 0.0197095 -0.145634
0.543319 0.176481 0.0187625 -0.152222
0.543319 0.183748 0.0175552 -0.15877
0.543319 0.191089 0.0164814 -0.165265
0.543319 0.198504 0.0157401 -0.171641
0.543319 0.205993 0.0155472 -0.178261
0.543319 0.213559 0.0148928 -0.185146
0.543319 0.2212 0.0144085 -0.192279
0.543319 0.228919 0.0145863 -0.198975
0.543319 0.236716 0.0147662 -0.206005
0.543319 0.244591 0.014834 -0.213251
0.543319 0.252546 0.0156853 -0.22063
0.543319 0.260581 0.0173824 -0.228119
0.543319 0.268698 0.0185459 -0.236701
0.543319 0.276896 0.0199241 -0.245664
0.543319 0.285177 0.0215217 -0.254694
0.543319 0.293542 0.0231075 -0.263567
0.543319 0.301991 0.0242165 -0.272284
0.543319 0.310525 0.0245804 -0.280995
0.543319 0.319146 0.0240627 -0.289795
0.543319 0.327854 0.0225378 -0.298652
0.543319 0.336649 0.0204208 -0.307724
0.543319 0.345533 0.0180342 -0.317412
0.543319 0.354507 0.015753 -0.32873
0.543319 0.363572 0.0137245 -0.341961
0.543319 0.372728 0.0124616 -0.357596
0.543319 0.381977 0.0122764 -0.375049
0.543319 0.391319 0.0138191 -0.393836
0.543319 0.400755 0.0158119 -0.412796
0.543319 0.410287 0.0191883 -0.432048
0.543319 0.419915 0.0231519 -0.45306
0.543319 0.42964 0.0310598 -0.478389
0.543319 0.439463 0.0484216 -0.509101
0.543319 0.449385 0.0825047 -0.545363
0.543319 0.459408 0.139081 -0.581211
0.543319 0.469532 0.212462 -0.610938
0.543319 0.479758 0.29826 -0.618325
0.543319 0.490087 0.356357 -0.610035
0.543319 0.50052 0.399 -0.564711
0.543319 0.511059 0.363531 -0.53493
0.543319 0.521704 0.40446 -0.477326
0.543319 0.532457 0.352685 -0.44373
0.543319 0.543319 0.345368 -0.537983
0.549236 0 0.0206842 -0.000519758
0.549236 0.00554522 0.0186555 -0.00586865
0.549236 0.0111464 0.0176621 -0.0120704
0.549236 0.0168042 0.0178406 -0.0181291
0.549236 0.0225191 0.0173614 -0.0237907
0.549236 0.0282916 0.0169855 -0.0290913
0.549236 0.0341225 0.0167382 -0.0337931
0.549236 0.0400122 0.0165686 -0.0381796
0.549236 0.0459614 0.0165498 -0.0418335
0.549236 0.0519707 0.0167421 -0.0456979
0.549236 0.0580406 0.0171582 -0.0488443
0.549236 0.0641718 0.0171962 -0.0525613
0.549236 0.0703649 0.0175787 -0.0557338
0.549236 0.0766206 0.0180984 -0.0591607
0.549236 0.0829394 0.0186578 -0.062981
0.549236 0.089322 0.0193766 -0.0670995
0.549236 0.095769 0.0199796 -0.071936
0.549236 0.102281 0.0215614 -0.0767628
0.549236 0.108859 0.0228298 -0.0829089
0.549236 0.115503 0.0234621 -0.0896987
0.549236 0.122215 0.0239921 -0.0970489
0.549236 0.128994 0.0246129 -0.104484
0.549236 0.135841 0.0252217 -0.111929
0.549236 0.142758 0.025668 -0.11921
0.549236 0.149745 0.0258393 -0.12618
0.549236 0.156802 0.0256994 -0.132975
0.549236 0.16393 0.0251724 -0.13972
0.549236 0.17113 0.0243019 -0.146446
0.549236 0.178403 0.0231493 -0.153198
0.549236 0.18575 0.0219835 -0.1599
0.549236 0.19317 0.0211249 -0.166551
0.549236 0.200666 0.0206602 -0.173198
0.549236 0.208237 0.020727 -0.179963
0.549236 0.215885 0.0204253 -0.187331
0.549236 0.22361 0.0201311 -0.194615
0.549236 0.231412 0.0205148 -0.201699
0.549236 0.239294 0.0210085 -0.209028
0.549236 0.247255 0.0214705 -0.216566
0.549236 0.255297 0.0227318 -0.224115
0.549236 0.26342 0.0246527 -0.231755
0.549236 0.271624 0.0260237 -0.240166
0.549236 0.279912 0.0274406 -0.248946
0.549236 0.288283 0.0287258 -0.257756
0.549236 0.296739 0.0297419 -0.266379
0.549236 0.30528 0.0302411 -0.274963
0.549236 0.313908 0.0299916 -0.283636
0.549236 0.322622 0.0289199 -0.292479
0.549236 0.331425 0.0272347 -0.301651
0.549236 0.340316 0.025458 -0.311479
0.549236 0.349297 0.0239567 -0.322192
0.549236 0.358369 0.0229422 -0.334406
0.549236 0.367532 0.022576 -0.348494
0.549236 0.376788 0.0231638 -0.364763
0.549236 0.386137 0.0246856 -0.382671
0.549236 0.395581 0.0276694 -0.402208
0.549236 0.40512 0.0311516 -0.422705
0.549236 0.414756 0.0367714 -0.44448
0.549236 0.424488 0.0457255 -0.468247
0.549236 0.434319 0.0618286 -0.495209
0.549236 0.44425 0.0907372 -0.524143
0.549236 0.45428 0.134197 -0.552368
0.549236 0.464412 0.193997 -0.573893
0.549236 0.474646 0.257967 -0.585482
0.549236 0.484983 0.318238 -0.578679
0.549236 0.495425 0.34515 -0.560747
0.549236 0.505972 0.365469 -0.528899
0.549236 0.516626 0.350862 -0.513077
0.549236 0.527387 0.385189 -0.485276
0.549236 0.538257 0.376502 -0.459418
0.549236 0.549236 0.377401 -0.506948
0.555274 0 0.0262825 -0.000626539
0.555274 0.00560617 0.0241509 -0.00571691
0.555274 0.011269 0.0232228 -0.0116727
0.555274 0.0169889 0.0234431 -0.0175353
0.555274 0.0227666 0.0230525 -0.0230905
0.555274 0.0286026 0.0226971 -0.0283818
0.555274 0.0344976 0.0224897 -0.0331369
0.555274 0.0404521 0.0222937 -0.0375759
0.555274 0.0464666 0.0223168 -0.0413648
0.555274 0.052542 0.0225321 -0.0453379
0.555274 0.0586786 0.0230154 -0.0486789
0.555274 0.0648772 0.0232144 -0.0524079
0.555274 0.0711384 0.0238289 -0.0558006
0.555274 0.0774628 0.0246461 -0.0594743
0.555274 0.0838511 0.0255607 -0.0634807
0.555274 0.0903038 0.0266633 -0.0677305
0.555274 0.0968217 0.027576 -0.0727068
0.555274 0.103405 0.0292141 -0.0779336
0.555274 0.110056 0.0304178 -0.0840865
0.555274 0.116773 0.0310594 -0.0908786
0.555274 0.123558 0.0314571 -0.0982368
0.555274 0.130412 0.0317058 -0.105661
0.555274 0.137335 0.031834 -0.113029
0.555274 0.144327 0.0317164 -0.120245
0.555274 0.151391 0.031374 -0.127341
0.555274 0.158525 0.0307652 -0.13426
0.555274 0.165732 0.0298992 -0.141074
0.555274 0.173011 0.0288651 -0.147876
0.555274 0.180364 0.0277402 -0.154744
0.555274 0.187792 0.0267685 -0.161618
0.555274 0.195294 0.0262214 -0.16847
0.555274 0.202872 0.0261072 -0.17537
0.555274 0.210526 0.0264643 -0.182565
0.555274 0.218258 0.0262801 -0.190013
0.555274 0.226067 0.0263384 -0.197557
0.555274 0.233956 0.0270184 -0.205088
0.555274 0.241924 0.0278053 -0.212769
0.555274 0.249973 0.0286054 -0.220596
0.555274 0.258103 0.0300714 -0.228296
0.555274 0.266315 0.0320693 -0.236074
0.555274 0.27461 0.0334597 -0.244427
0.555274 0.282989 0.0346908 -0.252952
0.555274 0.291452 0.035565 -0.261557
0.555274 0.300001 0.0361007 -0.270166
0.555274 0.308636 0.0360822 -0.278831
0.555274 0.317358 0.0353965 -0.287655
0.555274 0.326168 0.0342121 -0.296876
0.555274 0.335068 0.0328685 -0.306635
0.555274 0.344057 0.0317988 -0.317148
0.555274 0.353137 0.0313475 -0.328638
0.555274 0.362308 0.0316656 -0.341569
0.555274 0.371572 0.0328219 -0.356174
0.555274 0.38093 0.0350175 -0.372787
0.555274 0.390382 0.0381257 -0.391155
0.555274 0.39993 0.04268 -0.411388
0.555274 0.409573 0.0481825 -0.432763
0.555274 0.419315 0.0572679 -0.455714
0.555274 0.429154 0.0720737 -0.479915
0.555274 0.439094 0.0958896 -0.50529
0.555274 0.449133 0.131887 -0.52868
0.555274 0.459274 0.17819 -0.547021
0.555274 0.469517 0.232029 -0.555731
0.555274 0.479863 0.280403 -0.554401
0.555274 0.490314 0.318446 -0.541589
0.555274 0.500871 0.333392 -0.528027
0.555274 0.511534 0.348794 -0.511979
0.555274 0.522305 0.352385 -0.503376
0.555274 0.533184 0.384496 -0.489194
0.555274 0.544173 0.398102 -0.466271
0.555274 0.555274 0.406362 -0.476226
0.561433 0 0.0320199 -0.000533431
0.561433 0.00566836 0.0298526 -0.00559673
0.561433 0.0113939 0.028964 -0.0113403
0.561433 0.0171773 0.029187 -0.0170497
0.561433 0.0230191 0.0288708 -0.0225227