TITLE = SQUARE_22000
VARIABLES = "X" ,  "Y" , "u0" , "v0" , "p0" , "nu0", "fx", "fy"  
ZONE   N=30576,E=60444,F=FEPOINT,ET=TRIANGLE
0.5 0 0 0 0.0191142 0 0.008795 -0.000425942
0.5 0.00504812 0 0 0.0170387 0 0.0073654 0.00126711
0.5 0.0101472 0 0 0.0149179 0 0.0062684 0.00332895
0.5 0.0152978 0 0 0.0141536 0 0.00387671 0.00613456
0.5 0.0205003 0 0 0.0105475 0 0.000711808 0.0106532
0.5 0.0257554 0 0 0.00677711 0 -0.00115581 0.0127371
0.5 0.0310636 0 0 0.00635044 0 -0.00232126 0.0162211
0.5 0.0364253 0 0 0.00581689 0 -0.00126416 0.0192996
0.5 0.0418412 0 0 0.00514657 0 -0.00141522 0.0207575
0.5 0.0473118 0 0 0.00447644 0 -0.00253152 0.0234943
0.5 0.0528376 0 0 0.00417676 0 -0.00307221 0.0262756
0.5 0.0584191 0 0 0.00402497 0 -0.00221963 0.0295853
0.5 0.0640571 0 0 0.00552158 0 -0.000920144 0.0326254
0.5 0.0697519 0 0 0.00600183 0 0.00202091 0.0354027
0.5 0.0755043 0 0 0.00552799 0 0.00301241 0.0393457
0.5 0.0813147 0 0 0.00523238 0 0.0012167 0.0416067
0.5 0.0871838 0 0 0.00333752 0 0.000473053 0.0430228
0.5 0.0931121 0 0 0.000612498 0 -7.88503e-05 0.0466735
0.5 0.0991003 0 0 -0.000429606 0 -0.000376382 0.0501242
0.5 0.105149 0 0 -0.000577491 0 -0.000395543 0.0513406
0.5 0.111259 0 0 -0.00214192 0 0.000378378 0.0548313
0.5 0.11743 0 0 -0.00368225 0 -0.000816798 0.0581601
0.5 0.123664 0 0 -0.00626447 0 -0.000534461 0.0618601
0.5 0.129961 0 0 -0.00701135 0 -0.000517327 0.0650185
0.5 0.136321 0 0 -0.00695589 0 -0.000290921 0.0686573
0.5 0.142745 0 0 -0.00788373 0 -2.91417e-05 0.0713642
0.5 0.149235 0 0 -0.010726 0 0.000354509 0.0749998
0.5 0.155789 0 0 -0.0109762 0 -0.000274567 0.0783609
0.5 0.16241 0 0 -0.0126785 0 0.00132056 0.0816374
0.5 0.169098 0 0 -0.0145379 0 0.00132516 0.0855573
0.5 0.175854 0 0 -0.0172261 0 0.000867615 0.0891999
0.5 0.182677 0 0 -0.0210235 0 -0.000341891 0.0934156
0.5 0.18957 0 0 -0.0237047 0 -0.00102692 0.0977172
0.5 0.196532 0 0 -0.0261549 0 -0.000977378 0.101769
0.5 0.203564 0 0 -0.0284003 0 -0.000879408 0.104137
0.5 0.210667 0 0 -0.0302395 0 -0.000892957 0.107898
0.5 0.217842 0 0 -0.0336116 0 -0.000540471 0.11164
0.5 0.22509 0 0 -0.0360392 0 -0.000403915 0.11459
0.5 0.232411 0 0 -0.0384672 0 -0.000554129 0.117489
0.5 0.239805 0 0 -0.0409266 0 -0.00149299 0.120964
0.5 0.247274 0 0 -0.0442673 0 -0.00103515 0.124526
0.5 0.254819 0 0 -0.0478237 0 -0.000352831 0.128195
0.5 0.26244 0 0 -0.0512954 0 -0.0013075 0.130489
0.5 0.270138 0 0 -0.0537929 0 -0.000909647 0.13483
0.5 0.277913 0 0 -0.0569239 0 -0.00053628 0.139168
0.5 0.285767 0 0 -0.0580187 0 0.00140162 0.144032
0.5 0.293701 0 0 -0.0582014 0 0.00418226 0.148421
0.5 0.301714 0 0 -0.0620448 0 0.00651952 0.153929
0.5 0.309808 0 0 -0.064001 0 0.00275091 0.157627
0.5 0.317984 0 0 -0.073666 0 0.00267305 0.165629
0.5 0.326243 0 0 -0.0812914 0 -0.00213501 0.170405
0.5 0.334585 0 0 -0.0843397 0 -0.00262488 0.171339
0.5 0.343011 0 0 -0.0851376 0 -0.00127385 0.174335
0.5 0.351522 0 0 -0.0853866 0 0.00299071 0.17877
0.5 0.360119 0 0 -0.0922639 0 0.0032329 0.188275
0.5 0.368803 0 0 -0.0941726 0 -0.00408441 0.191214
0.5 0.377575 0 0 -0.100036 0 0.00142031 0.195385
0.5 0.386435 0 0 -0.103216 0 0.00114317 0.202439
0.5 0.395385 0 0 -0.102834 0 -0.00216486 0.207048
0.5 0.404425 0 0 -0.112179 0 -0.000858547 0.215551
0.5 0.413556 0 0 -0.103482 0 -0.00146515 0.220916
0.5 0.42278 0 0 -0.106452 0 0.00859075 0.229016
0.5 0.432096 0 0 -0.0988486 0 -0.00166847 0.24192
0.5 0.441507 0 0 -0.105188 0 0.00551857 0.260685
0.5 0.451013 0 0 -0.0866311 0 -0.00296018 0.268762
0.5 0.460614 0 0 -0.0884792 0 0.0248234 0.304381
0.5 0.470313 0 0 0.00662863 0 -0.0224748 0.292073
0.5 0.480109 0 0 0.0157595 0 0.174563 0.356845
0.5 0.490005 0 0 0.134679 0 -0.272265 0.708958
0.5 0.5 0 0 -0.691439 0 -0.710182 -0.0312078
0.505044 0 -0.00277808 0 0.000998058 7.36071e-05 -0.0107359 -0.00104114
0.505044 0.00509904 -0.000163936 -0.000191651 0.00186133 7.21704e-05 -0.00949847 0.00246031
0.505044 0.0102496 -0.00718578 0.0115454 0.00304052 7.32257e-05 -0.00664166 0.00489251
0.505044 0.0154521 -0.00123063 0.018046 0.00590794 7.02052e-05 -0.00629658 0.00635785
0.505044 0.0207071 0.00340206 0.015335 0.00702833 6.6006e-05 -0.00540107 0.00937683
0.505044 0.0260153 0.00239727 0.0104166 0.00721121 6.45804e-05 -0.00320533 0.011861
0.505044 0.031377 0.00205832 0.00759154 0.00801724 6.4802e-05 -0.0041109 0.0143044
0.505044 0.0367928 0.000978422 0.00499736 0.00708392 6.54411e-05 -0.00436745 0.0177593
0.505044 0.0422633 0.000472146 0.00229343 0.00645221 6.61947e-05 -0.00306486 0.0207325
0.505044 0.047789 -0.000487376 0.00420624 0.00664836 6.6262e-05 -0.00314376 0.0239039
0.505044 0.0533706 -0.000551818 0.0067212 0.00587885 6.53486e-05 -0.00297824 0.0263176
0.505044 0.0590085 -0.000284314 0.00859713 0.00414659 6.41089e-05 -0.0037829 0.0288486
0.505044 0.0647033 0.00106774 0.00714685 0.00297124 6.34582e-05 -0.00632639 0.0317135
0.505044 0.0704556 0.00066412 0.00361437 0.000835802 6.48921e-05 -0.0065186 0.0339179
0.505044 0.0762659 -0.00236554 0.00599327 -0.000654303 6.71012e-05 -0.00620792 0.0369353
0.505044 0.082135 -0.00359975 0.0122928 -0.00111752 6.74987e-05 -0.00648582 0.0402076
0.505044 0.0880633 -0.0011039 0.0173002 -0.00167376 6.61607e-05 -0.00607448 0.0421931
0.505044 0.0940514 0.000844154 0.0191455 -0.00182445 6.54059e-05 -0.00553211 0.0455478
0.505044 0.1001 -0.00210923 0.0229629 -0.00237548 6.53477e-05 -0.00493519 0.0494489
0.505044 0.10621 0.00136761 0.0222629 -0.00243342 6.32876e-05 -0.00526422 0.0528393
0.505044 0.112381 0.00293107 0.0159952 -0.00396403 6.17774e-05 -0.00474211 0.0562366
0.505044 0.118615 0.00616502 0.00356058 -0.00514986 6.25644e-05 -0.00531773 0.0594191
0.505044 0.124911 0.00196954 -0.0028585 -0.00793037 6.71445e-05 -0.00410243 0.0616061
0.505044 0.131272 -0.00458836 0.0050611 -0.00871905 7.0786e-05 -0.00440632 0.064448
0.505044 0.137696 -0.00451808 0.0163967 -0.0104063 6.98709e-05 -0.0048472 0.0679508
0.505044 0.144185 -0.00149341 0.0218273 -0.0117938 6.72794e-05 -0.00504791 0.0705373
0.505044 0.15074 -0.00112889 0.024007 -0.0137504 6.68731e-05 -0.00434296 0.0747015
0.505044 0.157361 -0.00385705 0.0311925 -0.0156034 6.83902e-05 -0.004767 0.0769015
0.505044 0.164049 -0.00279617 0.0400477 -0.0178925 6.84963e-05 -0.00546736 0.0792654
0.505044 0.170804 0.0013052 0.0404799 -0.0191087 6.66321e-05 -0.00645649 0.0829452
0.505044 0.177628 0.00391338 0.033198 -0.0206192 6.52092e-05 -0.00601098 0.0856357
0.505044 0.18452 0.00393561 0.0243364 -0.0225423 6.61049e-05 -0.00499423 0.0886524
0.505044 0.191482 -0.000128436 0.0228473 -0.0244504 6.89612e-05 -0.0046026 0.0911559
0.505044 0.198514 -0.00350728 0.0293538 -0.0271686 7.04063e-05 -0.00447296 0.0950853
0.505044 0.205618 0.000164446 0.0305517 -0.0294232 6.85768e-05 -0.00510109 0.100192
0.505044 0.212793 0.00297757 0.0239315 -0.0321325 6.73775e-05 -0.00572982 0.103977
0.505044 0.22004 0.000333211 0.0195043 -0.03551 6.94941e-05 -0.00439698 0.10774
0.505044 0.227361 -0.00438183 0.0253395 -0.0379306 7.25358e-05 -0.00392001 0.111681
0.505044 0.234755 -0.00422883 0.0349347 -0.0406803 7.34621e-05 -0.00374025 0.116395
0.505044 0.242224 -0.00183035 0.0437616 -0.0437387 7.28143e-05 -0.00423513 0.119557
0.505044 0.249769 0.000445484 0.045177 -0.0463155 7.1758e-05 -0.00582152 0.124204
0.505044 0.25739 0.00136099 0.040802 -0.0503795 7.18214e-05 -0.00482658 0.12895
0.505044 0.265087 -0.000320136 0.0406553 -0.0527421 7.31709e-05 -0.00513181 0.134218
0.505044 0.272863 -0.000331018 0.0433844 -0.057452 7.41039e-05 -0.004047 0.137257
0.505044 0.280717 0.000808899 0.0449634 -0.0604574 7.42419e-05 -0.00512255 0.141145
0.505044 0.28865 -3.61859e-05 0.0467405 -0.0641383 7.45689e-05 -0.00597944 0.144808
0.505044 0.296663 -0.00087642 0.047769 -0.0680556 7.45789e-05 -0.0066814 0.147554
0.505044 0.304758 0.000339156 0.046379 -0.0723877 7.37964e-05 -0.00625698 0.151785
0.505044 0.312933 0.00132793 0.0434773 -0.0734287 7.34481e-05 -0.00840102 0.15384
0.505044 0.321192 2.80755e-05 0.0430625 -0.0814915 7.4036e-05 -0.00532797 0.158254
0.505044 0.329534 -0.00277462 0.0508248 -0.0854289 7.5316e-05 -0.00870525 0.165198
0.505044 0.33796 -0.00416821 0.0604313 -0.0882548 7.59294e-05 -0.00665485 0.171603
0.505044 0.346471 -0.00282415 0.0697709 -0.0911457 7.51468e-05 -0.00833105 0.178391
0.505044 0.355068 -0.00175734 0.0768687 -0.0950897 7.45181e-05 -0.00781593 0.181479
0.505044 0.363752 -0.00178234 0.0834679 -0.0990692 7.42018e-05 -0.00715314 0.18856
0.505044 0.372524 -0.000390522 0.0875613 -0.10025 7.43204e-05 -0.00839863 0.193886
0.505044 0.381384 -0.00291814 0.0947202 -0.105519 7.56618e-05 -0.00434204 0.198943
0.505044 0.390333 -0.00232495 0.101306 -0.10599 7.68604e-05 -0.0084694 0.208928
0.505044 0.399373 -0.00239659 0.111106 -0.108277 7.86027e-05 -0.00621488 0.213635
0.505044 0.408505 0.000853583 0.121618 -0.112855 7.90366e-05 -0.00688793 0.22594
0.505044 0.417728 -0.00488045 0.125727 -0.114325 8.13145e-05 -0.0152675 0.233464
0.505044 0.427044 0.00187156 0.12948 -0.116941 8.19808e-05 -0.0114092 0.246716
0.505044 0.436455 -0.00262346 0.141004 -0.112782 8.53124e-05 -0.015894 0.249816
0.505044 0.445961 0.000514514 0.14996 -0.111927 8.81677e-05 -0.0183023 0.269356
0.505044 0.455562 -0.00781911 0.164042 -0.111887 9.41419e-05 -0.0261312 0.286625
0.505044 0.465261 0.0015027 0.198814 -0.0865531 9.96503e-05 -0.0487594 0.327585
0.505044 0.475057 -0.0238223 0.226143 -0.118265 0.000110073 -0.0597599 0.377027
0.505044 0.484953 0.00161991 0.273948 0.038794 0.000131773 -0.214271 0.455381
0.505044 0.494948 -0.128785 0.391082 -0.18247 0.000187507 -0.407931 0.457459
0.505044 0.505044 -0.00895123 0.220249 -0.653119 0.000294606 -0.246918 0.105487
0.51019 0 0.00147421 0 0.006899 0.000159624 -0.00798312 0.000863105
0.51019 0.005151 -0.00880744 0.00677346 0.00670387 0.000160427 -0.0083989 0.00302639
0.51019 0.010354 -0.0103152 0.00496335 0.00437877 0.000159454 -0.00941589 0.00774261
0.51019 0.0156095 -0.000195169 0.00023204 0.00378493 0.000154789 -0.00951996 0.00899986
0.51019 0.0209181 0.00670282 0.000142554 0.00334956 0.000149856 -0.0116906 0.0113456
0.51019 0.0262803 0.00347049 -0.000821664 0.00228711 0.000148303 -0.0106022 0.0149892
0.51019 0.0316966 0.00100304 0.00251481 0.00199547 0.000148849 -0.0102152 0.0154552
0.51019 0.0371676 0.00117189 0.00755471 0.00194475 0.000149196 -0.0114847 0.0178237
0.51019 0.0426939 -0.00326373 0.0123776 0.00116225 0.000149492 -0.010954 0.0204443
0.51019 0.0482759 -0.00407109 0.0160008 0.000458291 0.000147975 -0.0115315 0.0225973
0.51019 0.0539143 -0.00213491 0.0172827 0.000476647 0.000145393 -0.011668 0.0253159
0.51019 0.0596097 0.000805599 0.0162125 0.000992332 0.000143314 -0.00969631 0.0283857
0.51019 0.0653625 0.00429395 0.0155801 0.00138832 0.000143092 -0.00886324 0.0312031
0.51019 0.0711734 -0.00144618 0.0191485 0.000933563 0.000145736 -0.00839127 0.034489
0.51019 0.077043 -0.00647361 0.0230212 1.82018e-05 0.000147798 -0.00856713 0.0372602
0.51019 0.0829718 -0.0061518 0.0245795 -0.000663573 0.000147409 -0.00885424 0.0405446
0.51019 0.0889605 -0.00286716 0.0242468 -0.00145979 0.000146115 -0.00802866 0.0440782
0.51019 0.0950097 -0.00458355 0.0284232 -0.00307394 0.00014569 -0.00905661 0.046827
0.51019 0.10112 -0.00314815 0.0307684 -0.00549333 0.000144367 -0.0101538 0.049012
0.51019 0.107292 0.0032771 0.0328296 -0.00677031 0.000141893 -0.0107619 0.0507714
0.51019 0.113526 0.00771305 0.0361154 -0.00804417 0.000140838 -0.0105873 0.0532188
0.51019 0.119823 0.00430112 0.0460362 -0.00938602 0.000143437 -0.0100604 0.0563717
0.51019 0.126184 -0.00740309 0.0588195 -0.0116018 0.00014866 -0.00984386 0.0596822
0.51019 0.132609 -0.0102293 0.0625467 -0.0118361 0.000150626 -0.0114927 0.0628568
0.51019 0.139099 -0.00377129 0.0578011 -0.0135838 0.000147691 -0.0110219 0.0671871
0.51019 0.145654 8.29784e-05 0.0527437 -0.0148387 0.000145203 -0.0109914 0.0701905
0.51019 0.152276 -0.00344825 0.0513503 -0.0169168 0.000146429 -0.0111464 0.0739305
0.51019 0.158964 -0.00676374 0.0494728 -0.0184466 0.000148768 -0.0102696 0.0778837
0.51019 0.16572 -0.0030714 0.0502584 -0.0196701 0.000149146 -0.00907072 0.0816995
0.51019 0.172544 0.00301606 0.0548469 -0.0215228 0.000147395 -0.00904961 0.0854615
0.51019 0.179437 0.00527223 0.0626067 -0.0240112 0.000146626 -0.0090492 0.0886798
0.51019 0.1864 0.00081952 0.0719624 -0.0264849 0.000148081 -0.00971653 0.0928554
0.51019 0.193433 -0.00503453 0.0771216 -0.0289364 0.000150394 -0.00983249 0.0956309
0.51019 0.200537 -0.00159481 0.0735943 -0.0306656 0.000150403 -0.0105006 0.0985443
0.51019 0.207712 0.00495758 0.0714437 -0.0333524 0.000148766 -0.0101005 0.101805
0.51019 0.214961 0.00356352 0.0746329 -0.0365194 0.000149268 -0.0105492 0.105425
0.51019 0.222282 -0.00341066 0.0772331 -0.0404915 0.000152664 -0.0110959 0.108957
0.51019 0.229677 -0.00596926 0.0740981 -0.0429774 0.00015616 -0.012036 0.111533
0.51019 0.237147 -0.00622706 0.0704972 -0.0456043 0.000158171 -0.0117947 0.115558
0.51019 0.244692 -0.00217749 0.0681048 -0.0476946 0.000158456 -0.0104372 0.119818
0.51019 0.252314 0.000136125 0.0720925 -0.0503441 0.000159032 -0.00985463 0.122403
0.51019 0.260012 -0.00152814 0.076729 -0.053264 0.000161048 -0.00922605 0.125214
0.51019 0.267788 -0.00220177 0.0780534 -0.0568507 0.000163206 -0.0107293 0.128558
0.51019 0.275643 -0.00182668 0.0823233 -0.0613875 0.000163829 -0.0105722 0.133656
0.51019 0.283577 -0.00269277 0.0891921 -0.0652447 0.000163643 -0.0117743 0.138255
0.51019 0.291591 -0.00158044 0.0943578 -0.0698174 0.000162758 -0.0125083 0.143208
0.51019 0.299686 0.000239781 0.100172 -0.0739114 0.000161153 -0.0129361 0.147091
0.51019 0.307863 0.000417735 0.105428 -0.0764513 0.000159465 -0.0123291 0.153047
0.51019 0.316122 -0.000432611 0.113708 -0.0776289 0.000158463 -0.0111457 0.156433
0.51019 0.324464 -0.00540824 0.116604 -0.0802048 0.000158886 -0.00651617 0.161299
0.51019 0.332891 -0.00697561 0.116892 -0.0820054 0.000159804 -0.0092586 0.167148
0.51019 0.341403 -0.00683162 0.115279 -0.0870037 0.000160241 -0.00861953 0.170469
0.51019 0.350001 -0.00532541 0.115635 -0.0906544 0.00015994 -0.00922399 0.175325
0.51019 0.358686 -0.00375711 0.116765 -0.0962784 0.000159901 -0.00901144 0.180927
0.51019 0.367458 -0.0041368 0.118824 -0.100123 0.000160818 -0.0151105 0.18722
0.51019 0.376319 -0.00523686 0.120802 -0.10794 0.000162429 -0.0146086 0.194219
0.51019 0.38527 -0.00580499 0.126776 -0.109942 0.000165454 -0.0145293 0.198331
0.51019 0.39431 -0.00916496 0.13075 -0.111593 0.00016906 -0.0170115 0.206131
0.51019 0.403442 -0.00921169 0.138386 -0.115806 0.000172742 -0.0159873 0.210955
0.51019 0.412667 -0.00655386 0.148341 -0.116867 0.000175979 -0.0201964 0.220011
0.51019 0.421984 -0.00218442 0.156554 -0.117475 0.000179511 -0.0207004 0.226715
0.51019 0.431395 -0.00960828 0.170364 -0.122092 0.000184159 -0.026251 0.243096
0.51019 0.440902 -0.00519267 0.18168 -0.11789 0.000189158 -0.035112 0.260784
0.51019 0.450504 -0.0182852 0.201301 -0.1184 0.000198903 -0.0353286 0.270974
0.51019 0.460204 -0.0153342 0.218233 -0.105067 0.00021043 -0.056867 0.304095
0.51019 0.470001 -0.0365425 0.232773 -0.0907638 0.000231223 -0.0914616 0.292047
0.51019 0.479897 -0.0266853 0.253069 -0.0872974 0.000271654 -0.122532 0.404406
0.51019 0.489893 -0.035123 0.263742 -0.117556 0.000333636 -0.393085 0.162269
0.51019 0.499991 -0.0590685 0.17128 -0.377966 0.000391089 -0.150781 -0.125994
0.51019 0.51019 -0.0183856 0.248319 -0.514748 0.000458206 -0.118262 0.193639
0.515439 0 -0.00978512 0 0.00210968 0.000275704 -0.0129028 -0.0002593
0.515439 0.005204 -0.00767494 0.000163728 0.00117227 0.00027469 -0.0162431 -0.00128118
0.515439 0.0104605 -0.00442043 -0.000437653 0.00162996 0.000271044 -0.0170098 0.00338777
0.515439 0.0157701 -0.00138503 -0.00195899 0.00100557 0.000267042 -0.0134157 0.0058337
0.515439 0.0211334 0.00387164 0.00606013 0.00240214 0.000263143 -0.0153437 0.00744546
0.515439 0.0265507 7.96517e-05 0.0119819 0.00105049 0.000261641 -0.0150493 0.0115741
0.515439 0.0320228 -0.00459911 0.0146788 0.00133351 0.000261252 -0.0134892 0.0145822
0.515439 0.0375501 -0.00426988 0.0213819 0.0012726 0.000260055 -0.0141037 0.0170731
0.515439 0.0431332 -0.00575772 0.0246361 0.000323912 0.000257908 -0.0146224 0.0200723
0.515439 0.0487727 -0.00360083 0.024465 -0.000112264 0.000254723 -0.0143457 0.0235364
0.515439 0.0544691 -0.00087123 0.0238048 -0.00102054 0.000251815 -0.0153787 0.0270543
0.515439 0.060223 0.000429296 0.0246066 -0.00260951 0.000250241 -0.0163137 0.0293655
0.515439 0.066035 -0.00100293 0.0306481 -0.00365661 0.000250484 -0.0164799 0.031025
0.515439 0.0719057 -0.00649525 0.0351023 -0.00440289 0.000251942 -0.0160886 0.0332652
0.515439 0.0778357 -0.00834522 0.0355122 -0.00471305 0.000252686 -0.0156229 0.0364649
0.515439 0.0838255 -0.00461526 0.0350875 -0.00545642 0.000252093 -0.0163289 0.0390824
0.515439 0.0898759 -0.00524772 0.0385028 -0.00677575 0.000251496 -0.0157001 0.0404868
0.515439 0.0959873 -0.00551802 0.0394614 -0.00654542 0.000250657 -0.0153329 0.0436932
0.515439 0.10216 -0.00348394 0.040492 -0.00706687 0.000249139 -0.0140309 0.0486262
0.515439 0.108396 -6.47772e-05 0.0450873 -0.00791405 0.000247404 -0.0137917 0.0524704
0.515439 0.114694 -0.000834255 0.0540502 -0.00911992 0.000247188 -0.0141655 0.055819
0.515439 0.121056 -0.00612825 0.0614097 -0.0114094 0.000249239 -0.0149315 0.0586077
0.515439 0.127482 -0.0103051 0.0615655 -0.0133439 0.000252624 -0.0145583 0.0621312
0.515439 0.133973 -0.00584929 0.0590041 -0.0140985 0.000252829 -0.0150117 0.0636812
0.515439 0.14053 -0.000107641 0.0586376 -0.0159711 0.00025009 -0.0149866 0.0669882
0.515439 0.147153 -0.00137512 0.0623235 -0.0172456 0.000250017 -0.0143328 0.0699685
0.515439 0.153843 -0.00449735 0.0641209 -0.0189884 0.000252678 -0.0147194 0.0728224
0.515439 0.1606 -0.00658653 0.0640708 -0.0211573 0.000255817 -0.0153279 0.0750444
0.515439 0.167425 -0.00463072 0.0645305 -0.023243 0.000257134 -0.0159933 0.077917
0.515439 0.17432 -0.00286631 0.0693183 -0.0254257 0.000257078 -0.0158962 0.0813602
0.515439 0.181284 -0.0028195 0.077167 -0.0276259 0.000257084 -0.0159492 0.084139
0.515439 0.188318 -0.00401126 0.0803299 -0.0301944 0.000257993 -0.0165293 0.0879325
0.515439 0.195423 -0.0033112 0.0810217 -0.0324919 0.000258963 -0.0159819 0.0914871
0.515439 0.2026 -0.000489018 0.0842341 -0.034336 0.000258778 -0.0148674 0.0945811
0.515439 0.20985 0.0010708 0.0890142 -0.0359404 0.000258498 -0.0151325 0.0986562
0.515439 0.217172 -0.000280643 0.0937203 -0.0389949 0.000259861 -0.0150269 0.102086
0.515439 0.224569 -0.00371202 0.0944104 -0.0422847 0.000263045 -0.0144736 0.106844
0.515439 0.23204 -0.00501468 0.0960841 -0.044645 0.000266804 -0.0139355 0.110588
0.515439 0.239587 -0.00309003 0.0961549 -0.04749 0.000269894 -0.0152373 0.114243
0.515439 0.24721 -0.00191174 0.0970159 -0.0509925 0.000272385 -0.0153942 0.118346
0.515439 0.25491 -0.000687173 0.0972551 -0.0554843 0.000274818 -0.0169397 0.124017
0.515439 0.262687 -0.00352231 0.100612 -0.0589554 0.000277857 -0.0168015 0.128586
0.515439 0.270544 -0.00635405 0.107282 -0.0618521 0.000279629 -0.0147076 0.129864
0.515439 0.278479 -0.00611642 0.109257 -0.0641265 0.000279347 -0.015385 0.13426
0.515439 0.286495 -0.00609601 0.112592 -0.0664404 0.000278394 -0.0148633 0.138561
0.515439 0.294591 -0.00733429 0.119726 -0.0702357 0.000276366 -0.0131011 0.141412
0.515439 0.302769 -0.00422345 0.12581 -0.0728743 0.000273045 -0.0148189 0.147658
0.515439 0.31103 -0.00533803 0.131983 -0.0785634 0.000270856 -0.0158789 0.151645
0.515439 0.319374 -0.002977 0.135569 -0.0850759 0.00026853 -0.0197414 0.157192
0.515439 0.327803 -0.0069961 0.138822 -0.0902776 0.000268456 -0.0187462 0.159726
0.515439 0.336317 -0.00582082 0.140132 -0.0941183 0.000268759 -0.0215951 0.164947
0.515439 0.344916 -0.00542995 0.141814 -0.0998772 0.000269285 -0.0218897 0.170925
0.515439 0.353602 -0.00516109 0.141439 -0.103294 0.0002704 -0.0240328 0.175364
0.515439 0.362376 -0.00581159 0.147894 -0.105235 0.000272506 -0.0201523 0.17978
0.515439 0.371239 -0.0043583 0.150986 -0.105261 0.000274864 -0.0219462 0.184517
0.515439 0.380191 -0.00827314 0.154237 -0.112532 0.000278594 -0.0204996 0.195141
0.515439 0.389234 -0.00913097 0.160929 -0.115577 0.000283606 -0.0243933 0.202091
0.515439 0.398368 -0.00902319 0.162169 -0.120059 0.000289667 -0.0284413 0.208355
0.515439 0.407594 -0.0100483 0.162934 -0.122398 0.000296586 -0.0277576 0.220566
0.515439 0.416913 -0.0141095 0.174529 -0.124208 0.000303713 -0.0304786 0.228861
0.515439 0.426326 -0.0133221 0.188841 -0.128177 0.000310102 -0.0374932 0.239124
0.515439 0.435834 -0.0138183 0.198697 -0.125985 0.000319473 -0.0447043 0.245662
0.515439 0.445438 -0.0197675 0.212657 -0.135474 0.00033089 -0.054654 0.262207
0.515439 0.45514 -0.0231918 0.22002 -0.129317 0.000346897 -0.0807216 0.281769
0.515439 0.464939 -0.0280273 0.241814 -0.14552 0.000370513 -0.104847 0.30763
0.515439 0.474837 -0.0338553 0.228808 -0.139376 0.000409553 -0.190228 0.315473
0.515439 0.484835 -0.0331474 0.257417 -0.196849 0.000480024 -0.258714 0.274361
0.515439 0.494934 -0.05011 0.283878 -0.286967 0.000519604 -0.280899 0.222441
0.515439 0.505135 -0.0273453 0.245985 -0.389234 0.000553295 -0.107821 0.0693615
0.515439 0.515439 -0.0466766 0.24106 -0.506576 0.000697778 -0.0389436 0.153129
0.520794 0 -0.00732988 0 -0.00601608 0.000410343 -0.0202222 -0.000695382
0.520794 0.00525806 -0.0112422 0.00171148 0.00142474 0.000408949 -0.0187722 0.00362583
0.520794 0.0105692 -0.00203063 0.00324116 -0.00055326 0.000404006 -0.0214522 0.00612638
0.520794 0.015934 -0.00800257 0.00663842 -0.00140286 0.000400057 -0.0183089 0.00929966
0.520794 0.0213529 -0.00390417 0.0123779 -0.001018 0.000395539 -0.0187117 0.0105471
0.520794 0.0268266 -0.00219281 0.0185587 -0.00162868 0.000391699 -0.0219969 0.0139934
0.520794 0.0323555 -0.00956055 0.0213132 -0.00321823 0.000390112 -0.0195104 0.0155127
0.520794 0.0379402 -0.00874164 0.025154 -0.00291388 0.000387533 -0.0203258 0.0167786
0.520794 0.0435813 -0.00692677 0.0275642 -0.00281869 0.000384082 -0.0208335 0.0191097
0.520794 0.0492794 -0.00431542 0.0284165 -0.0028998 0.000380533 -0.0203101 0.0210402
0.520794 0.055035 -0.00266828 0.0329303 -0.00310112 0.000377534 -0.0193913 0.0233412
0.520794 0.0608487 -0.00472287 0.0368619 -0.00390715 0.000375643 -0.0177813 0.0273325
0.520794 0.0667211 -0.00456 0.0406002 -0.00460901 0.000374625 -0.0199181 0.0313044
0.520794 0.0726528 -0.00568092 0.040542 -0.0054785 0.000374493 -0.0210863 0.0350236
0.520794 0.0786444 -0.00812715 0.0415022 -0.00683184 0.000374585 -0.0199129 0.0365287
0.520794 0.0846965 -0.00868483 0.0463228 -0.00842335 0.000373798 -0.0192416 0.0401938
0.520794 0.0908097 -0.00705216 0.048643 -0.00935153 0.0003727 -0.0205793 0.0440332
0.520794 0.0969846 -0.00674037 0.0508161 -0.00967373 0.000372165 -0.0212953 0.0453161
0.520794 0.103222 -0.00600912 0.0521128 -0.011257 0.00037161 -0.0210264 0.0467625
0.520794 0.109522 -0.00640328 0.0572223 -0.0125482 0.000371277 -0.0201436 0.049234
0.520794 0.115886 -0.00716338 0.0621631 -0.0136167 0.00037159 -0.0201524 0.0522714
0.520794 0.122314 -0.00741942 0.0657283 -0.0148351 0.000372804 -0.021013 0.0548727
0.520794 0.128807 -0.00888794 0.0650267 -0.016246 0.000374149 -0.0204081 0.0591937
0.520794 0.135365 -0.00564866 0.06735 -0.0170804 0.000373897 -0.0193369 0.0614863
0.520794 0.14199 -0.0030077 0.0718297 -0.0184143 0.000373257 -0.0199569 0.0655302
0.520794 0.148682 -0.00305053 0.074281 -0.0202521 0.000374315 -0.0210084 0.0692607
0.520794 0.155441 -0.00565456 0.0775849 -0.0226959 0.000377072 -0.0201837 0.0727146
0.520794 0.162268 -0.00652331 0.0791196 -0.0245774 0.000380068 -0.0197994 0.0760322
0.520794 0.169165 -0.00637655 0.0826679 -0.0258225 0.000382341 -0.0193145 0.0794777
0.520794 0.176131 -0.00633986 0.0853646 -0.0283013 0.000383625 -0.0192998 0.0836383
0.520794 0.183167 -0.00556608 0.0883678 -0.0302327 0.00038472 -0.0199585 0.0876994
0.520794 0.190274 -0.00632661 0.0927296 -0.0327953 0.000386077 -0.0195553 0.0900498
0.520794 0.197454 -0.00491522 0.0950482 -0.0356366 0.000386921 -0.0205379 0.0934577
0.520794 0.204705 -0.00200609 0.0973934 -0.0382594 0.000387479 -0.0214069 0.0978745
0.520794 0.21203 -0.00350153 0.103828 -0.0409756 0.000388794 -0.0201905 0.100136
0.520794 0.219429 -0.00253391 0.108481 -0.043346 0.000390405 -0.0217249 0.102429
0.520794 0.226902 -0.0048776 0.109484 -0.0463676 0.000393692 -0.0219792 0.106287
0.520794 0.234451 -0.00546797 0.108203 -0.0494418 0.000397932 -0.0214339 0.109966
0.520794 0.242076 -0.00539344 0.112721 -0.0528411 0.000402324 -0.0209778 0.113256
0.520794 0.249778 -0.00458906 0.117437 -0.0556032 0.000406852 -0.0209928 0.114686
0.520794 0.257558 -0.0055804 0.126544 -0.057857 0.000411431 -0.0201789 0.117042
0.520794 0.265417 -0.00738403 0.128843 -0.0626694 0.000413429 -0.0215208 0.122636
0.520794 0.273355 -0.00474955 0.127141 -0.065757 0.000412595 -0.0237293 0.129664
0.520794 0.281372 -0.00736378 0.130225 -0.0694034 0.000411583 -0.0206991 0.131956
0.520794 0.289471 -0.00965564 0.133794 -0.0734662 0.000408878 -0.0239708 0.137004
0.520794 0.297652 -0.0059728 0.130983 -0.0775691 0.000405073 -0.0235503 0.142545
0.520794 0.305915 -0.00834548 0.134647 -0.0804904 0.000402624 -0.0231498 0.146275
0.520794 0.314262 -0.00691829 0.139854 -0.083718 0.000399692 -0.0229637 0.148442
0.520794 0.322693 -0.00723329 0.145353 -0.0887251 0.000397115 -0.0214647 0.155308
0.520794 0.331209 -0.0086131 0.14734 -0.09092 0.000396461 -0.024077 0.159815
0.520794 0.339811 -0.00783668 0.150626 -0.094542 0.000397111 -0.0221634 0.163142
0.520794 0.3485 -0.00672298 0.155583 -0.0978521 0.000398021 -0.023318 0.168517
0.520794 0.357276 -0.00935751 0.160076 -0.10315 0.000400153 -0.0221957 0.177097
0.520794 0.366142 -0.0095004 0.166518 -0.107716 0.000403376 -0.0281072 0.183451
0.520794 0.375096 -0.008534 0.173127 -0.111924 0.000407245 -0.0275481 0.185617
0.520794 0.384141 -0.0125238 0.176023 -0.11716 0.000413443 -0.0314414 0.190011
0.520794 0.393278 -0.0125131 0.180627 -0.120627 0.000421117 -0.0320119 0.199167
0.520794 0.402507 -0.0137347 0.190175 -0.125072 0.000431304 -0.0347194 0.202835
0.520794 0.411828 -0.0158674 0.197063 -0.131018 0.000441963 -0.0438613 0.207933
0.520794 0.421244 -0.015869 0.193836 -0.133452 0.000451161 -0.0509618 0.221479
0.520794 0.430755 -0.0190732 0.200741 -0.137079 0.000463076 -0.0505246 0.235063
0.520794 0.440362 -0.0222424 0.210997 -0.139399 0.000478776 -0.0710972 0.243965
0.520794 0.450067 -0.0228852 0.212778 -0.142671 0.000496765 -0.0820271 0.259459
0.520794 0.459869 -0.03745 0.219124 -0.144733 0.000524811 -0.114733 0.259742
0.520794 0.46977 -0.0313754 0.229191 -0.148682 0.000563479 -0.142522 0.255595
0.520794 0.479771 -0.0360279 0.23553 -0.176055 0.000615182 -0.224942 0.226408
0.520794 0.489873 -0.0433533 0.192048 -0.216901 0.0006483 -0.251728 0.0738771
0.520794 0.500076 -0.0301174 0.175513 -0.370367 0.000673034 -0.15641 0.000893049
0.520794 0.510383 -0.0313389 0.198718 -0.460691 0.000771253 -0.0950451 0.0630117
0.520794 0.520794 -0.057947 0.211607 -0.499819 0.00102172 -0.044358 0.135392
0.526258 0 -0.00713596 0 -0.00345248 0.000561583 -0.0235913 0.00467613
0.526258 0.00531322 -0.0144161 0.00160865 -0.00390994 0.000559189 -0.0252561 -0.00211139
0.526258 0.0106801 -0.005144 0.00641248 -0.00326079 0.000552602 -0.0255853 0.00353683
0.526258 0.0161011 -0.0105856 0.00788633 -0.00423828 0.000546981 -0.0268075 0.00667427
0.526258 0.0215769 -0.0117722 0.0130038 -0.00413463 0.000541183 -0.0215122 0.00680879
0.526258 0.027108 -0.00744594 0.0205934 -0.00409337 0.000535532 -0.0250395 0.0116375
0.526258 0.0326949 -0.0115832 0.0239613 -0.00535485 0.000531643 -0.0260747 0.014988
0.526258 0.0383382 -0.0104547 0.0233029 -0.00569015 0.000528132 -0.0238075 0.0187052
0.526258 0.0440385 -0.00866392 0.0276065 -0.00548846 0.000524248 -0.0252607 0.0212452
0.526258 0.0497964 -0.00815707 0.0319771 -0.00624551 0.000520312 -0.0243675 0.0240889
0.526258 0.0556124 -0.00433329 0.0335918 -0.00677686 0.000516609 -0.0279231 0.027163
0.526258 0.0614871 -0.00761925 0.0355205 -0.0072073 0.000514147 -0.0261903 0.0288396
0.526258 0.0674211 -0.00811703 0.0402699 -0.00779287 0.000512761 -0.0232151 0.0294364
0.526258 0.073415 -0.0090166 0.0459465 -0.00852191 0.00051144 -0.0247653 0.0316138
0.526258 0.0794694 -0.0111308 0.047101 -0.00907089 0.000510097 -0.0259117 0.0352523
0.526258 0.085585 -0.0092293 0.0470791 -0.00987681 0.000508775 -0.0258952 0.0373897
0.526258 0.0917623 -0.0096673 0.0495263 -0.0114249 0.00050807 -0.0230884 0.0416068
0.526258 0.098002 -0.0077775 0.0533919 -0.0123897 0.000507569 -0.0252579 0.0450247
0.526258 0.104305 -0.00809643 0.0556685 -0.0136839 0.000507399 -0.02509 0.0496507
0.526258 0.110671 -0.00840057 0.0572911 -0.0147408 0.000507711 -0.026474 0.0534305
0.526258 0.117102 -0.0109525 0.0593445 -0.0165036 0.000508692 -0.0239566 0.0558867
0.526258 0.123597 -0.00879947 0.0629424 -0.0174574 0.000509466 -0.0259778 0.058173
0.526258 0.130158 -0.00961953 0.0637341 -0.0197454 0.000510056 -0.025913 0.0615601
0.526258 0.136785 -0.00914425 0.0665722 -0.021553 0.000510655 -0.0251009 0.0640946
0.526258 0.14348 -0.00754251 0.0736882 -0.0225989 0.000511496 -0.0250657 0.0662053
0.526258 0.150242 -0.00840504 0.0807397 -0.0243751 0.000513437 -0.0244097 0.0674365
0.526258 0.157072 -0.00763787 0.0827511 -0.0256233 0.000516358 -0.0272899 0.0713539
0.526258 0.163971 -0.00890582 0.0838623 -0.0279909 0.000520141 -0.0252147 0.0750665
0.526258 0.170939 -0.00819903 0.0862955 -0.0299847 0.000523082 -0.0275123 0.0769678
0.526258 0.177979 -0.00764358 0.0880695 -0.0318355 0.000525487 -0.0264314 0.0801067
0.526258 0.185089 -0.00872234 0.0914764 -0.0342951 0.000527581 -0.0255622 0.0829822
0.526258 0.192271 -0.00690253 0.0924735 -0.0364475 0.000529141 -0.027238 0.0877174
0.526258 0.199525 -0.00594654 0.0934562 -0.0384963 0.000531328 -0.024271 0.091002
0.526258 0.206853 -0.00819 0.101281 -0.041283 0.000533347 -0.0244708 0.0938602
0.526258 0.214254 -0.00690618 0.105501 -0.0442702 0.000534736 -0.0262404 0.09918
0.526258 0.221731 -0.00587128 0.110627 -0.0471743 0.000536928 -0.0235571 0.102739
0.526258 0.229283 -0.0057017 0.115701 -0.0491996 0.000540942 -0.0269098 0.104909
0.526258 0.236911 -0.00790913 0.120191 -0.052734 0.000546429 -0.0245561 0.107335